+ 0.2 1 0 ping 64 ------- 0 1.0 4.0 -1 0
- 0.2 1 0 ping 64 ------- 0 1.0 4.0 -1 0
r 0.210512 1 0 ping 64 ------- 0 1.0 4.0 -1 0
+ 0.210512 0 4 ping 64 ------- 0 1.0 4.0 -1 0
- 0.210512 0 4 ping 64 ------- 0 1.0 4.0 -1 0
r 0.220219 0 4 ping 64 ------- 0 1.0 4.0 -1 0
+ 0.220219 4 0 ping 64 ------- 0 4.0 1.0 -1 1
- 0.220219 4 0 ping 64 ------- 0 4.0 1.0 -1 1
r 0.229925 4 0 ping 64 ------- 0 4.0 1.0 -1 1
+ 0.229925 0 1 ping 64 ------- 0 4.0 1.0 -1 1
- 0.229925 0 1 ping 64 ------- 0 4.0 1.0 -1 1
r 0.240437 0 1 ping 64 ------- 0 4.0 1.0 -1 1
+ 0.3 2 0 ping 64 ------- 0 2.0 5.0 -1 2
- 0.3 2 0 ping 64 ------- 0 2.0 5.0 -1 2
r 0.30656 2 0 ping 64 ------- 0 2.0 5.0 -1 2
+ 0.30656 0 5 ping 64 ------- 0 2.0 5.0 -1 2
- 0.30656 0 5 ping 64 ------- 0 2.0 5.0 -1 2
r 0.317413 0 5 ping 64 ------- 0 2.0 5.0 -1 2
+ 0.317413 5 0 ping 64 ------- 0 5.0 2.0 -1 3
- 0.317413 5 0 ping 64 ------- 0 5.0 2.0 -1 3
r 0.328267 5 0 ping 64 ------- 0 5.0 2.0 -1 3
+ 0.328267 0 2 ping 64 ------- 0 5.0 2.0 -1 3
- 0.328267 0 2 ping 64 ------- 0 5.0 2.0 -1 3
r 0.334827 0 2 ping 64 ------- 0 5.0 2.0 -1 3
+ 0.4 3 0 ping 64 ------- 0 3.0 6.0 -1 4
- 0.4 3 0 ping 64 ------- 0 3.0 6.0 -1 4
r 0.410512 3 0 ping 64 ------- 0 3.0 6.0 -1 4
+ 0.410512 0 6 ping 64 ------- 0 3.0 6.0 -1 4
- 0.410512 0 6 ping 64 ------- 0 3.0 6.0 -1 4
r 0.421325 0 6 ping 64 ------- 0 3.0 6.0 -1 4
+ 0.421325 6 0 ping 64 ------- 0 6.0 3.0 -1 5
- 0.421325 6 0 ping 64 ------- 0 6.0 3.0 -1 5
r 0.432137 6 0 ping 64 ------- 0 6.0 3.0 -1 5
+ 0.432137 0 3 ping 64 ------- 0 6.0 3.0 -1 5
- 0.432137 0 3 ping 64 ------- 0 6.0 3.0 -1 5
r 0.442649 0 3 ping 64 ------- 0 6.0 3.0 -1 5
+ 0.5 4 0 ping 64 ------- 0 4.0 1.0 -1 6
- 0.5 4 0 ping 64 ------- 0 4.0 1.0 -1 6
r 0.509707 4 0 ping 64 ------- 0 4.0 1.0 -1 6
+ 0.509707 0 1 ping 64 ------- 0 4.0 1.0 -1 6
- 0.509707 0 1 ping 64 ------- 0 4.0 1.0 -1 6
r 0.520219 0 1 ping 64 ------- 0 4.0 1.0 -1 6
+ 0.520219 1 0 ping 64 ------- 0 1.0 4.0 -1 7
- 0.520219 1 0 ping 64 ------- 0 1.0 4.0 -1 7
r 0.530731 1 0 ping 64 ------- 0 1.0 4.0 -1 7
+ 0.530731 0 4 ping 64 ------- 0 1.0 4.0 -1 7
- 0.530731 0 4 ping 64 ------- 0 1.0 4.0 -1 7
r 0.540437 0 4 ping 64 ------- 0 1.0 4.0 -1 7
+ 0.6 5 0 ping 64 ------- 0 5.0 2.0 -1 8
- 0.6 5 0 ping 64 ------- 0 5.0 2.0 -1 8
r 0.610853 5 0 ping 64 ------- 0 5.0 2.0 -1 8
+ 0.610853 0 2 ping 64 ------- 0 5.0 2.0 -1 8
- 0.610853 0 2 ping 64 ------- 0 5.0 2.0 -1 8
r 0.617413 0 2 ping 64 ------- 0 5.0 2.0 -1 8
+ 0.617413 2 0 ping 64 ------- 0 2.0 5.0 -1 9
- 0.617413 2 0 ping 64 ------- 0 2.0 5.0 -1 9
r 0.623973 2 0 ping 64 ------- 0 2.0 5.0 -1 9
+ 0.623973 0 5 ping 64 ------- 0 2.0 5.0 -1 9
- 0.623973 0 5 ping 64 ------- 0 2.0 5.0 -1 9
r 0.634827 0 5 ping 64 ------- 0 2.0 5.0 -1 9
+ 0.7 6 0 ping 64 ------- 0 6.0 3.0 -1 10
- 0.7 6 0 ping 64 ------- 0 6.0 3.0 -1 10
r 0.710813 6 0 ping 64 ------- 0 6.0 3.0 -1 10
+ 0.710813 0 3 ping 64 ------- 0 6.0 3.0 -1 10
- 0.710813 0 3 ping 64 ------- 0 6.0 3.0 -1 10
r 0.721325 0 3 ping 64 ------- 0 6.0 3.0 -1 10
+ 0.721325 3 0 ping 64 ------- 0 3.0 6.0 -1 11
- 0.721325 3 0 ping 64 ------- 0 3.0 6.0 -1 11
r 0.731837 3 0 ping 64 ------- 0 3.0 6.0 -1 11
+ 0.731837 0 6 ping 64 ------- 0 3.0 6.0 -1 11
- 0.731837 0 6 ping 64 ------- 0 3.0 6.0 -1 11
r 0.742649 0 6 ping 64 ------- 0 3.0 6.0 -1 11
