+ 0.5 0 2 tcp 40 ------- 1 0.0 3.0 0 0
- 0.5 0 2 tcp 40 ------- 1 0.0 3.0 0 0
r 0.510376 0 2 tcp 40 ------- 1 0.0 3.0 0 0
+ 0.510376 2 3 tcp 40 ------- 1 0.0 3.0 0 0
- 0.510376 2 3 tcp 40 ------- 1 0.0 3.0 0 0
r 0.520696 2 3 tcp 40 ------- 1 0.0 3.0 0 0
+ 0.520696 3 2 ack 40 ------- 1 3.0 0.0 0 1
- 0.520696 3 2 ack 40 ------- 1 3.0 0.0 0 1
r 0.531016 3 2 ack 40 ------- 1 3.0 0.0 0 1
+ 0.531016 2 0 ack 40 ------- 1 3.0 0.0 0 1
- 0.531016 2 0 ack 40 ------- 1 3.0 0.0 0 1
r 0.541393 2 0 ack 40 ------- 1 3.0 0.0 0 1
+ 0.541393 0 2 tcp 1040 ------- 1 0.0 3.0 1 2
- 0.541393 0 2 tcp 1040 ------- 1 0.0 3.0 1 2
+ 0.541393 0 2 tcp 1040 ------- 1 0.0 3.0 2 3
- 0.551181 0 2 tcp 1040 ------- 1 0.0 3.0 2 3
r 0.561181 0 2 tcp 1040 ------- 1 0.0 3.0 1 2
+ 0.561181 2 3 tcp 1040 ------- 1 0.0 3.0 1 2
- 0.561181 2 3 tcp 1040 ------- 1 0.0 3.0 1 2
r 0.570969 0 2 tcp 1040 ------- 1 0.0 3.0 2 3
+ 0.570969 2 3 tcp 1040 ------- 1 0.0 3.0 2 3
- 0.570969 2 3 tcp 1040 ------- 1 0.0 3.0 2 3
r 0.579501 2 3 tcp 1040 ------- 1 0.0 3.0 1 2
+ 0.579501 3 2 ack 40 ------- 1 3.0 0.0 1 4
- 0.579501 3 2 ack 40 ------- 1 3.0 0.0 1 4
r 0.589289 2 3 tcp 1040 ------- 1 0.0 3.0 2 3
+ 0.589289 3 2 ack 40 ------- 1 3.0 0.0 2 5
- 0.589289 3 2 ack 40 ------- 1 3.0 0.0 2 5
r 0.589821 3 2 ack 40 ------- 1 3.0 0.0 1 4
+ 0.589821 2 0 ack 40 ------- 1 3.0 0.0 1 4
- 0.589821 2 0 ack 40 ------- 1 3.0 0.0 1 4
r 0.599609 3 2 ack 40 ------- 1 3.0 0.0 2 5
+ 0.599609 2 0 ack 40 ------- 1 3.0 0.0 2 5
- 0.599609 2 0 ack 40 ------- 1 3.0 0.0 2 5
r 0.600198 2 0 ack 40 ------- 1 3.0 0.0 1 4
+ 0.600198 0 2 tcp 1040 ------- 1 0.0 3.0 3 6
- 0.600198 0 2 tcp 1040 ------- 1 0.0 3.0 3 6
+ 0.600198 0 2 tcp 1040 ------- 1 0.0 3.0 4 7
r 0.609986 2 0 ack 40 ------- 1 3.0 0.0 2 5
+ 0.609986 0 2 tcp 1040 ------- 1 0.0 3.0 5 8
+ 0.609986 0 2 tcp 1040 ------- 1 0.0 3.0 6 9
- 0.609986 0 2 tcp 1040 ------- 1 0.0 3.0 4 7
- 0.619774 0 2 tcp 1040 ------- 1 0.0 3.0 5 8
r 0.619986 0 2 tcp 1040 ------- 1 0.0 3.0 3 6
+ 0.619986 2 3 tcp 1040 ------- 1 0.0 3.0 3 6
- 0.619986 2 3 tcp 1040 ------- 1 0.0 3.0 3 6
- 0.629562 0 2 tcp 1040 ------- 1 0.0 3.0 6 9
r 0.629774 0 2 tcp 1040 ------- 1 0.0 3.0 4 7
+ 0.629774 2 3 tcp 1040 ------- 1 0.0 3.0 4 7
- 0.629774 2 3 tcp 1040 ------- 1 0.0 3.0 4 7
r 0.638306 2 3 tcp 1040 ------- 1 0.0 3.0 3 6
+ 0.638306 3 2 ack 40 ------- 1 3.0 0.0 3 10
- 0.638306 3 2 ack 40 ------- 1 3.0 0.0 3 10
r 0.639562 0 2 tcp 1040 ------- 1 0.0 3.0 5 8
+ 0.639562 2 3 tcp 1040 ------- 1 0.0 3.0 5 8
- 0.639562 2 3 tcp 1040 ------- 1 0.0 3.0 5 8
r 0.648094 2 3 tcp 1040 ------- 1 0.0 3.0 4 7
+ 0.648094 3 2 ack 40 ------- 1 3.0 0.0 4 11
- 0.648094 3 2 ack 40 ------- 1 3.0 0.0 4 11
r 0.648626 3 2 ack 40 ------- 1 3.0 0.0 3 10
+ 0.648626 2 0 ack 40 ------- 1 3.0 0.0 3 10
- 0.648626 2 0 ack 40 ------- 1 3.0 0.0 3 10
r 0.649351 0 2 tcp 1040 ------- 1 0.0 3.0 6 9
+ 0.649351 2 3 tcp 1040 ------- 1 0.0 3.0 6 9
- 0.649351 2 3 tcp 1040 ------- 1 0.0 3.0 6 9
r 0.657882 2 3 tcp 1040 ------- 1 0.0 3.0 5 8
+ 0.657882 3 2 ack 40 ------- 1 3.0 0.0 5 12
- 0.657882 3 2 ack 40 ------- 1 3.0 0.0 5 12
r 0.658414 3 2 ack 40 ------- 1 3.0 0.0 4 11
+ 0.658414 2 0 ack 40 ------- 1 3.0 0.0 4 11
- 0.658414 2 0 ack 40 ------- 1 3.0 0.0 4 11
r 0.659002 2 0 ack 40 ------- 1 3.0 0.0 3 10
+ 0.659002 0 2 tcp 1040 ------- 1 0.0 3.0 7 13
- 0.659002 0 2 tcp 1040 ------- 1 0.0 3.0 7 13
+ 0.659002 0 2 tcp 1040 ------- 1 0.0 3.0 8 14
r 0.667671 2 3 tcp 1040 ------- 1 0.0 3.0 6 9
+ 0.667671 3 2 ack 40 ------- 1 3.0 0.0 6 15
- 0.667671 3 2 ack 40 ------- 1 3.0 0.0 6 15
r 0.668202 3 2 ack 40 ------- 1 3.0 0.0 5 12
+ 0.668202 2 0 ack 40 ------- 1 3.0 0.0 5 12
- 0.668202 2 0 ack 40 ------- 1 3.0 0.0 5 12
r 0.668791 2 0 ack 40 ------- 1 3.0 0.0 4 11
+ 0.668791 0 2 tcp 1040 ------- 1 0.0 3.0 9 16
+ 0.668791 0 2 tcp 1040 ------- 1 0.0 3.0 10 17
- 0.668791 0 2 tcp 1040 ------- 1 0.0 3.0 8 14
r 0.677991 3 2 ack 40 ------- 1 3.0 0.0 6 15
+ 0.677991 2 0 ack 40 ------- 1 3.0 0.0 6 15
- 0.677991 2 0 ack 40 ------- 1 3.0 0.0 6 15
r 0.678579 2 0 ack 40 ------- 1 3.0 0.0 5 12
+ 0.678579 0 2 tcp 1040 ------- 1 0.0 3.0 11 18
+ 0.678579 0 2 tcp 1040 ------- 1 0.0 3.0 12 19
- 0.678579 0 2 tcp 1040 ------- 1 0.0 3.0 9 16
r 0.678791 0 2 tcp 1040 ------- 1 0.0 3.0 7 13
+ 0.678791 2 3 tcp 1040 ------- 1 0.0 3.0 7 13
- 0.678791 2 3 tcp 1040 ------- 1 0.0 3.0 7 13
r 0.688367 2 0 ack 40 ------- 1 3.0 0.0 6 15
+ 0.688367 0 2 tcp 1040 ------- 1 0.0 3.0 13 20
+ 0.688367 0 2 tcp 1040 ------- 1 0.0 3.0 14 21
- 0.688367 0 2 tcp 1040 ------- 1 0.0 3.0 10 17
r 0.688579 0 2 tcp 1040 ------- 1 0.0 3.0 8 14
+ 0.688579 2 3 tcp 1040 ------- 1 0.0 3.0 8 14
- 0.688579 2 3 tcp 1040 ------- 1 0.0 3.0 8 14
r 0.697111 2 3 tcp 1040 ------- 1 0.0 3.0 7 13
+ 0.697111 3 2 ack 40 ------- 1 3.0 0.0 7 22
- 0.697111 3 2 ack 40 ------- 1 3.0 0.0 7 22
- 0.698155 0 2 tcp 1040 ------- 1 0.0 3.0 11 18
r 0.698367 0 2 tcp 1040 ------- 1 0.0 3.0 9 16
+ 0.698367 2 3 tcp 1040 ------- 1 0.0 3.0 9 16
- 0.698367 2 3 tcp 1040 ------- 1 0.0 3.0 9 16
r 0.706899 2 3 tcp 1040 ------- 1 0.0 3.0 8 14
+ 0.706899 3 2 ack 40 ------- 1 3.0 0.0 8 23
- 0.706899 3 2 ack 40 ------- 1 3.0 0.0 8 23
r 0.707431 3 2 ack 40 ------- 1 3.0 0.0 7 22
+ 0.707431 2 0 ack 40 ------- 1 3.0 0.0 7 22
- 0.707431 2 0 ack 40 ------- 1 3.0 0.0 7 22
- 0.707944 0 2 tcp 1040 ------- 1 0.0 3.0 12 19
r 0.708155 0 2 tcp 1040 ------- 1 0.0 3.0 10 17
+ 0.708155 2 3 tcp 1040 ------- 1 0.0 3.0 10 17
- 0.708155 2 3 tcp 1040 ------- 1 0.0 3.0 10 17
r 0.716687 2 3 tcp 1040 ------- 1 0.0 3.0 9 16
+ 0.716687 3 2 ack 40 ------- 1 3.0 0.0 9 24
- 0.716687 3 2 ack 40 ------- 1 3.0 0.0 9 24
r 0.717219 3 2 ack 40 ------- 1 3.0 0.0 8 23
+ 0.717219 2 0 ack 40 ------- 1 3.0 0.0 8 23
- 0.717219 2 0 ack 40 ------- 1 3.0 0.0 8 23
- 0.717732 0 2 tcp 1040 ------- 1 0.0 3.0 13 20
r 0.717807 2 0 ack 40 ------- 1 3.0 0.0 7 22
+ 0.717807 0 2 tcp 1040 ------- 1 0.0 3.0 15 25
+ 0.717807 0 2 tcp 1040 ------- 1 0.0 3.0 16 26
r 0.717944 0 2 tcp 1040 ------- 1 0.0 3.0 11 18
+ 0.717944 2 3 tcp 1040 ------- 1 0.0 3.0 11 18
- 0.717944 2 3 tcp 1040 ------- 1 0.0 3.0 11 18
r 0.726475 2 3 tcp 1040 ------- 1 0.0 3.0 10 17
+ 0.726475 3 2 ack 40 ------- 1 3.0 0.0 10 27
- 0.726475 3 2 ack 40 ------- 1 3.0 0.0 10 27
r 0.727007 3 2 ack 40 ------- 1 3.0 0.0 9 24
+ 0.727007 2 0 ack 40 ------- 1 3.0 0.0 9 24
- 0.727007 2 0 ack 40 ------- 1 3.0 0.0 9 24
- 0.72752 0 2 tcp 1040 ------- 1 0.0 3.0 14 21
r 0.727595 2 0 ack 40 ------- 1 3.0 0.0 8 23
+ 0.727595 0 2 tcp 1040 ------- 1 0.0 3.0 17 28
+ 0.727595 0 2 tcp 1040 ------- 1 0.0 3.0 18 29
r 0.727732 0 2 tcp 1040 ------- 1 0.0 3.0 12 19
+ 0.727732 2 3 tcp 1040 ------- 1 0.0 3.0 12 19
- 0.727732 2 3 tcp 1040 ------- 1 0.0 3.0 12 19
r 0.736264 2 3 tcp 1040 ------- 1 0.0 3.0 11 18
+ 0.736264 3 2 ack 40 ------- 1 3.0 0.0 11 30
- 0.736264 3 2 ack 40 ------- 1 3.0 0.0 11 30
r 0.736795 3 2 ack 40 ------- 1 3.0 0.0 10 27
+ 0.736795 2 0 ack 40 ------- 1 3.0 0.0 10 27
- 0.736795 2 0 ack 40 ------- 1 3.0 0.0 10 27
- 0.737308 0 2 tcp 1040 ------- 1 0.0 3.0 15 25
r 0.737384 2 0 ack 40 ------- 1 3.0 0.0 9 24
+ 0.737384 0 2 tcp 1040 ------- 1 0.0 3.0 19 31
+ 0.737384 0 2 tcp 1040 ------- 1 0.0 3.0 20 32
r 0.73752 0 2 tcp 1040 ------- 1 0.0 3.0 13 20
+ 0.73752 2 3 tcp 1040 ------- 1 0.0 3.0 13 20
- 0.73752 2 3 tcp 1040 ------- 1 0.0 3.0 13 20
r 0.746052 2 3 tcp 1040 ------- 1 0.0 3.0 12 19
+ 0.746052 3 2 ack 40 ------- 1 3.0 0.0 12 33
- 0.746052 3 2 ack 40 ------- 1 3.0 0.0 12 33
r 0.746584 3 2 ack 40 ------- 1 3.0 0.0 11 30
+ 0.746584 2 0 ack 40 ------- 1 3.0 0.0 11 30
- 0.746584 2 0 ack 40 ------- 1 3.0 0.0 11 30
- 0.747096 0 2 tcp 1040 ------- 1 0.0 3.0 16 26
r 0.747172 2 0 ack 40 ------- 1 3.0 0.0 10 27
+ 0.747172 0 2 tcp 1040 ------- 1 0.0 3.0 21 34
+ 0.747172 0 2 tcp 1040 ------- 1 0.0 3.0 22 35
r 0.747308 0 2 tcp 1040 ------- 1 0.0 3.0 14 21
+ 0.747308 2 3 tcp 1040 ------- 1 0.0 3.0 14 21
- 0.747308 2 3 tcp 1040 ------- 1 0.0 3.0 14 21
r 0.75584 2 3 tcp 1040 ------- 1 0.0 3.0 13 20
+ 0.75584 3 2 ack 40 ------- 1 3.0 0.0 13 36
- 0.75584 3 2 ack 40 ------- 1 3.0 0.0 13 36
r 0.756372 3 2 ack 40 ------- 1 3.0 0.0 12 33
+ 0.756372 2 0 ack 40 ------- 1 3.0 0.0 12 33
- 0.756372 2 0 ack 40 ------- 1 3.0 0.0 12 33
- 0.756885 0 2 tcp 1040 ------- 1 0.0 3.0 17 28
r 0.75696 2 0 ack 40 ------- 1 3.0 0.0 11 30
+ 0.75696 0 2 tcp 1040 ------- 1 0.0 3.0 23 37
+ 0.75696 0 2 tcp 1040 ------- 1 0.0 3.0 24 38
r 0.757096 0 2 tcp 1040 ------- 1 0.0 3.0 15 25
+ 0.757096 2 3 tcp 1040 ------- 1 0.0 3.0 15 25
- 0.757096 2 3 tcp 1040 ------- 1 0.0 3.0 15 25
r 0.765628 2 3 tcp 1040 ------- 1 0.0 3.0 14 21
+ 0.765628 3 2 ack 40 ------- 1 3.0 0.0 14 39
- 0.765628 3 2 ack 40 ------- 1 3.0 0.0 14 39
r 0.76616 3 2 ack 40 ------- 1 3.0 0.0 13 36
+ 0.76616 2 0 ack 40 ------- 1 3.0 0.0 13 36
- 0.76616 2 0 ack 40 ------- 1 3.0 0.0 13 36
- 0.766673 0 2 tcp 1040 ------- 1 0.0 3.0 18 29
r 0.766748 2 0 ack 40 ------- 1 3.0 0.0 12 33
+ 0.766748 0 2 tcp 1040 ------- 1 0.0 3.0 25 40
+ 0.766748 0 2 tcp 1040 ------- 1 0.0 3.0 26 41
r 0.766885 0 2 tcp 1040 ------- 1 0.0 3.0 16 26
+ 0.766885 2 3 tcp 1040 ------- 1 0.0 3.0 16 26
- 0.766885 2 3 tcp 1040 ------- 1 0.0 3.0 16 26
r 0.775416 2 3 tcp 1040 ------- 1 0.0 3.0 15 25
+ 0.775416 3 2 ack 40 ------- 1 3.0 0.0 15 42
- 0.775416 3 2 ack 40 ------- 1 3.0 0.0 15 42
r 0.775948 3 2 ack 40 ------- 1 3.0 0.0 14 39
+ 0.775948 2 0 ack 40 ------- 1 3.0 0.0 14 39
- 0.775948 2 0 ack 40 ------- 1 3.0 0.0 14 39
- 0.776461 0 2 tcp 1040 ------- 1 0.0 3.0 19 31
r 0.776536 2 0 ack 40 ------- 1 3.0 0.0 13 36
+ 0.776536 0 2 tcp 1040 ------- 1 0.0 3.0 27 43
+ 0.776536 0 2 tcp 1040 ------- 1 0.0 3.0 28 44
r 0.776673 0 2 tcp 1040 ------- 1 0.0 3.0 17 28
+ 0.776673 2 3 tcp 1040 ------- 1 0.0 3.0 17 28
- 0.776673 2 3 tcp 1040 ------- 1 0.0 3.0 17 28
r 0.785205 2 3 tcp 1040 ------- 1 0.0 3.0 16 26
+ 0.785205 3 2 ack 40 ------- 1 3.0 0.0 16 45
- 0.785205 3 2 ack 40 ------- 1 3.0 0.0 16 45
r 0.785736 3 2 ack 40 ------- 1 3.0 0.0 15 42
+ 0.785736 2 0 ack 40 ------- 1 3.0 0.0 15 42
- 0.785736 2 0 ack 40 ------- 1 3.0 0.0 15 42
- 0.786249 0 2 tcp 1040 ------- 1 0.0 3.0 20 32
r 0.786325 2 0 ack 40 ------- 1 3.0 0.0 14 39
+ 0.786325 0 2 tcp 1040 ------- 1 0.0 3.0 29 46
+ 0.786325 0 2 tcp 1040 ------- 1 0.0 3.0 30 47
d 0.786325 0 2 tcp 1040 ------- 1 0.0 3.0 30 47
r 0.786461 0 2 tcp 1040 ------- 1 0.0 3.0 18 29
+ 0.786461 2 3 tcp 1040 ------- 1 0.0 3.0 18 29
- 0.786461 2 3 tcp 1040 ------- 1 0.0 3.0 18 29
r 0.794993 2 3 tcp 1040 ------- 1 0.0 3.0 17 28
+ 0.794993 3 2 ack 40 ------- 1 3.0 0.0 17 48
- 0.794993 3 2 ack 40 ------- 1 3.0 0.0 17 48
r 0.795525 3 2 ack 40 ------- 1 3.0 0.0 16 45
+ 0.795525 2 0 ack 40 ------- 1 3.0 0.0 16 45
- 0.795525 2 0 ack 40 ------- 1 3.0 0.0 16 45
- 0.796038 0 2 tcp 1040 ------- 1 0.0 3.0 21 34
r 0.796113 2 0 ack 40 ------- 1 3.0 0.0 15 42
+ 0.796113 0 2 tcp 1040 ------- 1 0.0 3.0 31 49
+ 0.796113 0 2 tcp 1040 ------- 1 0.0 3.0 32 50
d 0.796113 0 2 tcp 1040 ------- 1 0.0 3.0 32 50
r 0.796249 0 2 tcp 1040 ------- 1 0.0 3.0 19 31
+ 0.796249 2 3 tcp 1040 ------- 1 0.0 3.0 19 31
- 0.796249 2 3 tcp 1040 ------- 1 0.0 3.0 19 31
r 0.804781 2 3 tcp 1040 ------- 1 0.0 3.0 18 29
+ 0.804781 3 2 ack 40 ------- 1 3.0 0.0 18 51
- 0.804781 3 2 ack 40 ------- 1 3.0 0.0 18 51
r 0.805313 3 2 ack 40 ------- 1 3.0 0.0 17 48
+ 0.805313 2 0 ack 40 ------- 1 3.0 0.0 17 48
- 0.805313 2 0 ack 40 ------- 1 3.0 0.0 17 48
- 0.805826 0 2 tcp 1040 ------- 1 0.0 3.0 22 35
r 0.805901 2 0 ack 40 ------- 1 3.0 0.0 16 45
+ 0.805901 0 2 tcp 1040 ------- 1 0.0 3.0 33 52
+ 0.805901 0 2 tcp 1040 ------- 1 0.0 3.0 34 53
d 0.805901 0 2 tcp 1040 ------- 1 0.0 3.0 34 53
r 0.806038 0 2 tcp 1040 ------- 1 0.0 3.0 20 32
+ 0.806038 2 3 tcp 1040 ------- 1 0.0 3.0 20 32
- 0.806038 2 3 tcp 1040 ------- 1 0.0 3.0 20 32
r 0.814569 2 3 tcp 1040 ------- 1 0.0 3.0 19 31
+ 0.814569 3 2 ack 40 ------- 1 3.0 0.0 19 54
- 0.814569 3 2 ack 40 ------- 1 3.0 0.0 19 54
r 0.815101 3 2 ack 40 ------- 1 3.0 0.0 18 51
+ 0.815101 2 0 ack 40 ------- 1 3.0 0.0 18 51
- 0.815101 2 0 ack 40 ------- 1 3.0 0.0 18 51
- 0.815614 0 2 tcp 1040 ------- 1 0.0 3.0 23 37
r 0.815689 2 0 ack 40 ------- 1 3.0 0.0 17 48
+ 0.815689 0 2 tcp 1040 ------- 1 0.0 3.0 35 55
+ 0.815689 0 2 tcp 1040 ------- 1 0.0 3.0 36 56
d 0.815689 0 2 tcp 1040 ------- 1 0.0 3.0 36 56
r 0.815826 0 2 tcp 1040 ------- 1 0.0 3.0 21 34
+ 0.815826 2 3 tcp 1040 ------- 1 0.0 3.0 21 34
- 0.815826 2 3 tcp 1040 ------- 1 0.0 3.0 21 34
r 0.824358 2 3 tcp 1040 ------- 1 0.0 3.0 20 32
+ 0.824358 3 2 ack 40 ------- 1 3.0 0.0 20 57
- 0.824358 3 2 ack 40 ------- 1 3.0 0.0 20 57
r 0.824889 3 2 ack 40 ------- 1 3.0 0.0 19 54
+ 0.824889 2 0 ack 40 ------- 1 3.0 0.0 19 54
- 0.824889 2 0 ack 40 ------- 1 3.0 0.0 19 54
- 0.825402 0 2 tcp 1040 ------- 1 0.0 3.0 24 38
r 0.825478 2 0 ack 40 ------- 1 3.0 0.0 18 51
+ 0.825478 0 2 tcp 1040 ------- 1 0.0 3.0 37 58
+ 0.825478 0 2 tcp 1040 ------- 1 0.0 3.0 38 59
d 0.825478 0 2 tcp 1040 ------- 1 0.0 3.0 38 59
r 0.825614 0 2 tcp 1040 ------- 1 0.0 3.0 22 35
+ 0.825614 2 3 tcp 1040 ------- 1 0.0 3.0 22 35
- 0.825614 2 3 tcp 1040 ------- 1 0.0 3.0 22 35
r 0.834146 2 3 tcp 1040 ------- 1 0.0 3.0 21 34
+ 0.834146 3 2 ack 40 ------- 1 3.0 0.0 21 60
- 0.834146 3 2 ack 40 ------- 1 3.0 0.0 21 60
r 0.834678 3 2 ack 40 ------- 1 3.0 0.0 20 57
+ 0.834678 2 0 ack 40 ------- 1 3.0 0.0 20 57
- 0.834678 2 0 ack 40 ------- 1 3.0 0.0 20 57
- 0.835191 0 2 tcp 1040 ------- 1 0.0 3.0 25 40
r 0.835266 2 0 ack 40 ------- 1 3.0 0.0 19 54
+ 0.835266 0 2 tcp 1040 ------- 1 0.0 3.0 39 61
r 0.835402 0 2 tcp 1040 ------- 1 0.0 3.0 23 37
+ 0.835402 2 3 tcp 1040 ------- 1 0.0 3.0 23 37
- 0.835402 2 3 tcp 1040 ------- 1 0.0 3.0 23 37
r 0.843934 2 3 tcp 1040 ------- 1 0.0 3.0 22 35
+ 0.843934 3 2 ack 40 ------- 1 3.0 0.0 22 62
- 0.843934 3 2 ack 40 ------- 1 3.0 0.0 22 62
r 0.844466 3 2 ack 40 ------- 1 3.0 0.0 21 60
+ 0.844466 2 0 ack 40 ------- 1 3.0 0.0 21 60
- 0.844466 2 0 ack 40 ------- 1 3.0 0.0 21 60
- 0.844979 0 2 tcp 1040 ------- 1 0.0 3.0 26 41
r 0.845054 2 0 ack 40 ------- 1 3.0 0.0 20 57
+ 0.845054 0 2 tcp 1040 ------- 1 0.0 3.0 40 63
r 0.845191 0 2 tcp 1040 ------- 1 0.0 3.0 24 38
+ 0.845191 2 3 tcp 1040 ------- 1 0.0 3.0 24 38
- 0.845191 2 3 tcp 1040 ------- 1 0.0 3.0 24 38
r 0.853722 2 3 tcp 1040 ------- 1 0.0 3.0 23 37
+ 0.853722 3 2 ack 40 ------- 1 3.0 0.0 23 64
- 0.853722 3 2 ack 40 ------- 1 3.0 0.0 23 64
r 0.854254 3 2 ack 40 ------- 1 3.0 0.0 22 62
+ 0.854254 2 0 ack 40 ------- 1 3.0 0.0 22 62
- 0.854254 2 0 ack 40 ------- 1 3.0 0.0 22 62
- 0.854767 0 2 tcp 1040 ------- 1 0.0 3.0 27 43
r 0.854842 2 0 ack 40 ------- 1 3.0 0.0 21 60
+ 0.854842 0 2 tcp 1040 ------- 1 0.0 3.0 41 65
r 0.854979 0 2 tcp 1040 ------- 1 0.0 3.0 25 40
+ 0.854979 2 3 tcp 1040 ------- 1 0.0 3.0 25 40
- 0.854979 2 3 tcp 1040 ------- 1 0.0 3.0 25 40
r 0.863511 2 3 tcp 1040 ------- 1 0.0 3.0 24 38
+ 0.863511 3 2 ack 40 ------- 1 3.0 0.0 24 66
- 0.863511 3 2 ack 40 ------- 1 3.0 0.0 24 66
r 0.864042 3 2 ack 40 ------- 1 3.0 0.0 23 64
+ 0.864042 2 0 ack 40 ------- 1 3.0 0.0 23 64
- 0.864042 2 0 ack 40 ------- 1 3.0 0.0 23 64
- 0.864555 0 2 tcp 1040 ------- 1 0.0 3.0 28 44
r 0.864631 2 0 ack 40 ------- 1 3.0 0.0 22 62
+ 0.864631 0 2 tcp 1040 ------- 1 0.0 3.0 42 67
r 0.864767 0 2 tcp 1040 ------- 1 0.0 3.0 26 41
+ 0.864767 2 3 tcp 1040 ------- 1 0.0 3.0 26 41
- 0.864767 2 3 tcp 1040 ------- 1 0.0 3.0 26 41
r 0.873299 2 3 tcp 1040 ------- 1 0.0 3.0 25 40
+ 0.873299 3 2 ack 40 ------- 1 3.0 0.0 25 68
- 0.873299 3 2 ack 40 ------- 1 3.0 0.0 25 68
r 0.873831 3 2 ack 40 ------- 1 3.0 0.0 24 66
+ 0.873831 2 0 ack 40 ------- 1 3.0 0.0 24 66
- 0.873831 2 0 ack 40 ------- 1 3.0 0.0 24 66
- 0.874344 0 2 tcp 1040 ------- 1 0.0 3.0 29 46
r 0.874419 2 0 ack 40 ------- 1 3.0 0.0 23 64
+ 0.874419 0 2 tcp 1040 ------- 1 0.0 3.0 43 69
r 0.874555 0 2 tcp 1040 ------- 1 0.0 3.0 27 43
+ 0.874555 2 3 tcp 1040 ------- 1 0.0 3.0 27 43
- 0.874555 2 3 tcp 1040 ------- 1 0.0 3.0 27 43
r 0.883087 2 3 tcp 1040 ------- 1 0.0 3.0 26 41
+ 0.883087 3 2 ack 40 ------- 1 3.0 0.0 26 70
- 0.883087 3 2 ack 40 ------- 1 3.0 0.0 26 70
r 0.883619 3 2 ack 40 ------- 1 3.0 0.0 25 68
+ 0.883619 2 0 ack 40 ------- 1 3.0 0.0 25 68
- 0.883619 2 0 ack 40 ------- 1 3.0 0.0 25 68
- 0.884132 0 2 tcp 1040 ------- 1 0.0 3.0 31 49
r 0.884207 2 0 ack 40 ------- 1 3.0 0.0 24 66
+ 0.884207 0 2 tcp 1040 ------- 1 0.0 3.0 44 71
r 0.884344 0 2 tcp 1040 ------- 1 0.0 3.0 28 44
+ 0.884344 2 3 tcp 1040 ------- 1 0.0 3.0 28 44
- 0.884344 2 3 tcp 1040 ------- 1 0.0 3.0 28 44
r 0.892875 2 3 tcp 1040 ------- 1 0.0 3.0 27 43
+ 0.892875 3 2 ack 40 ------- 1 3.0 0.0 27 72
- 0.892875 3 2 ack 40 ------- 1 3.0 0.0 27 72
r 0.893407 3 2 ack 40 ------- 1 3.0 0.0 26 70
+ 0.893407 2 0 ack 40 ------- 1 3.0 0.0 26 70
- 0.893407 2 0 ack 40 ------- 1 3.0 0.0 26 70
- 0.89392 0 2 tcp 1040 ------- 1 0.0 3.0 33 52
r 0.893995 2 0 ack 40 ------- 1 3.0 0.0 25 68
+ 0.893995 0 2 tcp 1040 ------- 1 0.0 3.0 45 73
r 0.894132 0 2 tcp 1040 ------- 1 0.0 3.0 29 46
+ 0.894132 2 3 tcp 1040 ------- 1 0.0 3.0 29 46
- 0.894132 2 3 tcp 1040 ------- 1 0.0 3.0 29 46
r 0.902664 2 3 tcp 1040 ------- 1 0.0 3.0 28 44
+ 0.902664 3 2 ack 40 ------- 1 3.0 0.0 28 74
- 0.902664 3 2 ack 40 ------- 1 3.0 0.0 28 74
r 0.903195 3 2 ack 40 ------- 1 3.0 0.0 27 72
+ 0.903195 2 0 ack 40 ------- 1 3.0 0.0 27 72
- 0.903195 2 0 ack 40 ------- 1 3.0 0.0 27 72
- 0.903708 0 2 tcp 1040 ------- 1 0.0 3.0 35 55
r 0.903784 2 0 ack 40 ------- 1 3.0 0.0 26 70
+ 0.903784 0 2 tcp 1040 ------- 1 0.0 3.0 46 75
r 0.90392 0 2 tcp 1040 ------- 1 0.0 3.0 31 49
+ 0.90392 2 3 tcp 1040 ------- 1 0.0 3.0 31 49
- 0.90392 2 3 tcp 1040 ------- 1 0.0 3.0 31 49
r 0.912452 2 3 tcp 1040 ------- 1 0.0 3.0 29 46
+ 0.912452 3 2 ack 40 ------- 1 3.0 0.0 29 76
- 0.912452 3 2 ack 40 ------- 1 3.0 0.0 29 76
r 0.912984 3 2 ack 40 ------- 1 3.0 0.0 28 74
+ 0.912984 2 0 ack 40 ------- 1 3.0 0.0 28 74
- 0.912984 2 0 ack 40 ------- 1 3.0 0.0 28 74
- 0.913496 0 2 tcp 1040 ------- 1 0.0 3.0 37 58
r 0.913572 2 0 ack 40 ------- 1 3.0 0.0 27 72
+ 0.913572 0 2 tcp 1040 ------- 1 0.0 3.0 47 77
r 0.913708 0 2 tcp 1040 ------- 1 0.0 3.0 33 52
+ 0.913708 2 3 tcp 1040 ------- 1 0.0 3.0 33 52
- 0.913708 2 3 tcp 1040 ------- 1 0.0 3.0 33 52
r 0.92224 2 3 tcp 1040 ------- 1 0.0 3.0 31 49
+ 0.92224 3 2 ack 40 ------- 1 3.0 0.0 29 78
- 0.92224 3 2 ack 40 ------- 1 3.0 0.0 29 78
r 0.922772 3 2 ack 40 ------- 1 3.0 0.0 29 76
+ 0.922772 2 0 ack 40 ------- 1 3.0 0.0 29 76
- 0.922772 2 0 ack 40 ------- 1 3.0 0.0 29 76
- 0.923285 0 2 tcp 1040 ------- 1 0.0 3.0 39 61
r 0.92336 2 0 ack 40 ------- 1 3.0 0.0 28 74
+ 0.92336 0 2 tcp 1040 ------- 1 0.0 3.0 48 79
r 0.923496 0 2 tcp 1040 ------- 1 0.0 3.0 35 55
+ 0.923496 2 3 tcp 1040 ------- 1 0.0 3.0 35 55
- 0.923496 2 3 tcp 1040 ------- 1 0.0 3.0 35 55
r 0.932028 2 3 tcp 1040 ------- 1 0.0 3.0 33 52
+ 0.932028 3 2 ack 40 ------- 1 3.0 0.0 29 80
- 0.932028 3 2 ack 40 ------- 1 3.0 0.0 29 80
r 0.93256 3 2 ack 40 ------- 1 3.0 0.0 29 78
+ 0.93256 2 0 ack 40 ------- 1 3.0 0.0 29 78
- 0.93256 2 0 ack 40 ------- 1 3.0 0.0 29 78
- 0.933073 0 2 tcp 1040 ------- 1 0.0 3.0 40 63
r 0.933148 2 0 ack 40 ------- 1 3.0 0.0 29 76
+ 0.933148 0 2 tcp 1040 ------- 1 0.0 3.0 49 81
r 0.933285 0 2 tcp 1040 ------- 1 0.0 3.0 37 58
+ 0.933285 2 3 tcp 1040 ------- 1 0.0 3.0 37 58
- 0.933285 2 3 tcp 1040 ------- 1 0.0 3.0 37 58
r 0.941816 2 3 tcp 1040 ------- 1 0.0 3.0 35 55
+ 0.941816 3 2 ack 40 ------- 1 3.0 0.0 29 82
- 0.941816 3 2 ack 40 ------- 1 3.0 0.0 29 82
r 0.942348 3 2 ack 40 ------- 1 3.0 0.0 29 80
+ 0.942348 2 0 ack 40 ------- 1 3.0 0.0 29 80
- 0.942348 2 0 ack 40 ------- 1 3.0 0.0 29 80
- 0.942861 0 2 tcp 1040 ------- 1 0.0 3.0 41 65
r 0.942936 2 0 ack 40 ------- 1 3.0 0.0 29 78
r 0.943073 0 2 tcp 1040 ------- 1 0.0 3.0 39 61
+ 0.943073 2 3 tcp 1040 ------- 1 0.0 3.0 39 61
- 0.943073 2 3 tcp 1040 ------- 1 0.0 3.0 39 61
r 0.951605 2 3 tcp 1040 ------- 1 0.0 3.0 37 58
+ 0.951605 3 2 ack 40 ------- 1 3.0 0.0 29 83
- 0.951605 3 2 ack 40 ------- 1 3.0 0.0 29 83
r 0.952136 3 2 ack 40 ------- 1 3.0 0.0 29 82
+ 0.952136 2 0 ack 40 ------- 1 3.0 0.0 29 82
- 0.952136 2 0 ack 40 ------- 1 3.0 0.0 29 82
- 0.952649 0 2 tcp 1040 ------- 1 0.0 3.0 42 67
r 0.952725 2 0 ack 40 ------- 1 3.0 0.0 29 80
r 0.952861 0 2 tcp 1040 ------- 1 0.0 3.0 40 63
+ 0.952861 2 3 tcp 1040 ------- 1 0.0 3.0 40 63
- 0.952861 2 3 tcp 1040 ------- 1 0.0 3.0 40 63
r 0.961393 2 3 tcp 1040 ------- 1 0.0 3.0 39 61
+ 0.961393 3 2 ack 40 ------- 1 3.0 0.0 29 84
- 0.961393 3 2 ack 40 ------- 1 3.0 0.0 29 84
r 0.961925 3 2 ack 40 ------- 1 3.0 0.0 29 83
+ 0.961925 2 0 ack 40 ------- 1 3.0 0.0 29 83
- 0.961925 2 0 ack 40 ------- 1 3.0 0.0 29 83
- 0.962438 0 2 tcp 1040 ------- 1 0.0 3.0 43 69
r 0.962513 2 0 ack 40 ------- 1 3.0 0.0 29 82
+ 0.962513 0 2 tcp 1040 ---A--- 1 0.0 3.0 30 85
r 0.962649 0 2 tcp 1040 ------- 1 0.0 3.0 41 65
+ 0.962649 2 3 tcp 1040 ------- 1 0.0 3.0 41 65
- 0.962649 2 3 tcp 1040 ------- 1 0.0 3.0 41 65
r 0.971181 2 3 tcp 1040 ------- 1 0.0 3.0 40 63
+ 0.971181 3 2 ack 40 ------- 1 3.0 0.0 29 86
- 0.971181 3 2 ack 40 ------- 1 3.0 0.0 29 86
r 0.971713 3 2 ack 40 ------- 1 3.0 0.0 29 84
+ 0.971713 2 0 ack 40 ------- 1 3.0 0.0 29 84
- 0.971713 2 0 ack 40 ------- 1 3.0 0.0 29 84
- 0.972226 0 2 tcp 1040 ------- 1 0.0 3.0 44 71
r 0.972301 2 0 ack 40 ------- 1 3.0 0.0 29 83
r 0.972438 0 2 tcp 1040 ------- 1 0.0 3.0 42 67
+ 0.972438 2 3 tcp 1040 ------- 1 0.0 3.0 42 67
- 0.972438 2 3 tcp 1040 ------- 1 0.0 3.0 42 67
r 0.980969 2 3 tcp 1040 ------- 1 0.0 3.0 41 65
+ 0.980969 3 2 ack 40 ------- 1 3.0 0.0 29 87
- 0.980969 3 2 ack 40 ------- 1 3.0 0.0 29 87
r 0.981501 3 2 ack 40 ------- 1 3.0 0.0 29 86
+ 0.981501 2 0 ack 40 ------- 1 3.0 0.0 29 86
- 0.981501 2 0 ack 40 ------- 1 3.0 0.0 29 86
- 0.982014 0 2 tcp 1040 ------- 1 0.0 3.0 45 73
r 0.982089 2 0 ack 40 ------- 1 3.0 0.0 29 84
r 0.982226 0 2 tcp 1040 ------- 1 0.0 3.0 43 69
+ 0.982226 2 3 tcp 1040 ------- 1 0.0 3.0 43 69
- 0.982226 2 3 tcp 1040 ------- 1 0.0 3.0 43 69
r 0.990758 2 3 tcp 1040 ------- 1 0.0 3.0 42 67
+ 0.990758 3 2 ack 40 ------- 1 3.0 0.0 29 88
- 0.990758 3 2 ack 40 ------- 1 3.0 0.0 29 88
r 0.991289 3 2 ack 40 ------- 1 3.0 0.0 29 87
+ 0.991289 2 0 ack 40 ------- 1 3.0 0.0 29 87
- 0.991289 2 0 ack 40 ------- 1 3.0 0.0 29 87
- 0.991802 0 2 tcp 1040 ------- 1 0.0 3.0 46 75
r 0.991878 2 0 ack 40 ------- 1 3.0 0.0 29 86
r 0.992014 0 2 tcp 1040 ------- 1 0.0 3.0 44 71
+ 0.992014 2 3 tcp 1040 ------- 1 0.0 3.0 44 71
- 0.992014 2 3 tcp 1040 ------- 1 0.0 3.0 44 71
r 1.000546 2 3 tcp 1040 ------- 1 0.0 3.0 43 69
+ 1.000546 3 2 ack 40 ------- 1 3.0 0.0 29 89
- 1.000546 3 2 ack 40 ------- 1 3.0 0.0 29 89
r 1.001078 3 2 ack 40 ------- 1 3.0 0.0 29 88
+ 1.001078 2 0 ack 40 ------- 1 3.0 0.0 29 88
- 1.001078 2 0 ack 40 ------- 1 3.0 0.0 29 88
- 1.001591 0 2 tcp 1040 ------- 1 0.0 3.0 47 77
r 1.001666 2 0 ack 40 ------- 1 3.0 0.0 29 87
r 1.001802 0 2 tcp 1040 ------- 1 0.0 3.0 45 73
+ 1.001802 2 3 tcp 1040 ------- 1 0.0 3.0 45 73
- 1.001802 2 3 tcp 1040 ------- 1 0.0 3.0 45 73
r 1.010334 2 3 tcp 1040 ------- 1 0.0 3.0 44 71
+ 1.010334 3 2 ack 40 ------- 1 3.0 0.0 29 90
- 1.010334 3 2 ack 40 ------- 1 3.0 0.0 29 90
r 1.010866 3 2 ack 40 ------- 1 3.0 0.0 29 89
+ 1.010866 2 0 ack 40 ------- 1 3.0 0.0 29 89
- 1.010866 2 0 ack 40 ------- 1 3.0 0.0 29 89
- 1.011379 0 2 tcp 1040 ------- 1 0.0 3.0 48 79
r 1.011454 2 0 ack 40 ------- 1 3.0 0.0 29 88
r 1.011591 0 2 tcp 1040 ------- 1 0.0 3.0 46 75
+ 1.011591 2 3 tcp 1040 ------- 1 0.0 3.0 46 75
- 1.011591 2 3 tcp 1040 ------- 1 0.0 3.0 46 75
r 1.020122 2 3 tcp 1040 ------- 1 0.0 3.0 45 73
+ 1.020122 3 2 ack 40 ------- 1 3.0 0.0 29 91
- 1.020122 3 2 ack 40 ------- 1 3.0 0.0 29 91
r 1.020654 3 2 ack 40 ------- 1 3.0 0.0 29 90
+ 1.020654 2 0 ack 40 ------- 1 3.0 0.0 29 90
- 1.020654 2 0 ack 40 ------- 1 3.0 0.0 29 90
- 1.021167 0 2 tcp 1040 ------- 1 0.0 3.0 49 81
r 1.021242 2 0 ack 40 ------- 1 3.0 0.0 29 89
r 1.021379 0 2 tcp 1040 ------- 1 0.0 3.0 47 77
+ 1.021379 2 3 tcp 1040 ------- 1 0.0 3.0 47 77
- 1.021379 2 3 tcp 1040 ------- 1 0.0 3.0 47 77
r 1.029911 2 3 tcp 1040 ------- 1 0.0 3.0 46 75
+ 1.029911 3 2 ack 40 ------- 1 3.0 0.0 29 92
- 1.029911 3 2 ack 40 ------- 1 3.0 0.0 29 92
r 1.030442 3 2 ack 40 ------- 1 3.0 0.0 29 91
+ 1.030442 2 0 ack 40 ------- 1 3.0 0.0 29 91
- 1.030442 2 0 ack 40 ------- 1 3.0 0.0 29 91
- 1.030955 0 2 tcp 1040 ---A--- 1 0.0 3.0 30 85
r 1.031031 2 0 ack 40 ------- 1 3.0 0.0 29 90
r 1.031167 0 2 tcp 1040 ------- 1 0.0 3.0 48 79
+ 1.031167 2 3 tcp 1040 ------- 1 0.0 3.0 48 79
- 1.031167 2 3 tcp 1040 ------- 1 0.0 3.0 48 79
r 1.039699 2 3 tcp 1040 ------- 1 0.0 3.0 47 77
+ 1.039699 3 2 ack 40 ------- 1 3.0 0.0 29 93
- 1.039699 3 2 ack 40 ------- 1 3.0 0.0 29 93
r 1.040231 3 2 ack 40 ------- 1 3.0 0.0 29 92
+ 1.040231 2 0 ack 40 ------- 1 3.0 0.0 29 92
- 1.040231 2 0 ack 40 ------- 1 3.0 0.0 29 92
r 1.040819 2 0 ack 40 ------- 1 3.0 0.0 29 91
r 1.040955 0 2 tcp 1040 ------- 1 0.0 3.0 49 81
+ 1.040955 2 3 tcp 1040 ------- 1 0.0 3.0 49 81
- 1.040955 2 3 tcp 1040 ------- 1 0.0 3.0 49 81
r 1.049487 2 3 tcp 1040 ------- 1 0.0 3.0 48 79
+ 1.049487 3 2 ack 40 ------- 1 3.0 0.0 29 94
- 1.049487 3 2 ack 40 ------- 1 3.0 0.0 29 94
r 1.050019 3 2 ack 40 ------- 1 3.0 0.0 29 93
+ 1.050019 2 0 ack 40 ------- 1 3.0 0.0 29 93
- 1.050019 2 0 ack 40 ------- 1 3.0 0.0 29 93
r 1.050607 2 0 ack 40 ------- 1 3.0 0.0 29 92
r 1.050744 0 2 tcp 1040 ---A--- 1 0.0 3.0 30 85
+ 1.050744 2 3 tcp 1040 ---A--- 1 0.0 3.0 30 85
- 1.050744 2 3 tcp 1040 ---A--- 1 0.0 3.0 30 85
r 1.059275 2 3 tcp 1040 ------- 1 0.0 3.0 49 81
+ 1.059275 3 2 ack 40 ------- 1 3.0 0.0 29 95
- 1.059275 3 2 ack 40 ------- 1 3.0 0.0 29 95
r 1.059807 3 2 ack 40 ------- 1 3.0 0.0 29 94
+ 1.059807 2 0 ack 40 ------- 1 3.0 0.0 29 94
- 1.059807 2 0 ack 40 ------- 1 3.0 0.0 29 94
r 1.060395 2 0 ack 40 ------- 1 3.0 0.0 29 93
r 1.069064 2 3 tcp 1040 ---A--- 1 0.0 3.0 30 85
+ 1.069064 3 2 ack 40 ------- 1 3.0 0.0 31 96
- 1.069064 3 2 ack 40 ------- 1 3.0 0.0 31 96
r 1.069595 3 2 ack 40 ------- 1 3.0 0.0 29 95
+ 1.069595 2 0 ack 40 ------- 1 3.0 0.0 29 95
- 1.069595 2 0 ack 40 ------- 1 3.0 0.0 29 95
r 1.070184 2 0 ack 40 ------- 1 3.0 0.0 29 94
r 1.079384 3 2 ack 40 ------- 1 3.0 0.0 31 96
+ 1.079384 2 0 ack 40 ------- 1 3.0 0.0 31 96
- 1.079384 2 0 ack 40 ------- 1 3.0 0.0 31 96
r 1.079972 2 0 ack 40 ------- 1 3.0 0.0 29 95
r 1.08976 2 0 ack 40 ------- 1 3.0 0.0 31 96
+ 1.08976 0 2 tcp 1040 ------- 1 0.0 3.0 32 97
- 1.08976 0 2 tcp 1040 ------- 1 0.0 3.0 32 97
+ 1.08976 0 2 tcp 1040 ------- 1 0.0 3.0 33 98
- 1.099548 0 2 tcp 1040 ------- 1 0.0 3.0 33 98
r 1.109548 0 2 tcp 1040 ------- 1 0.0 3.0 32 97
+ 1.109548 2 3 tcp 1040 ------- 1 0.0 3.0 32 97
- 1.109548 2 3 tcp 1040 ------- 1 0.0 3.0 32 97
r 1.119336 0 2 tcp 1040 ------- 1 0.0 3.0 33 98
+ 1.119336 2 3 tcp 1040 ------- 1 0.0 3.0 33 98
- 1.119336 2 3 tcp 1040 ------- 1 0.0 3.0 33 98
r 1.127868 2 3 tcp 1040 ------- 1 0.0 3.0 32 97
+ 1.127868 3 2 ack 40 ------- 1 3.0 0.0 33 99
- 1.127868 3 2 ack 40 ------- 1 3.0 0.0 33 99
r 1.137656 2 3 tcp 1040 ------- 1 0.0 3.0 33 98
+ 1.137656 3 2 ack 40 ------- 1 3.0 0.0 33 100
- 1.137656 3 2 ack 40 ------- 1 3.0 0.0 33 100
r 1.138188 3 2 ack 40 ------- 1 3.0 0.0 33 99
+ 1.138188 2 0 ack 40 ------- 1 3.0 0.0 33 99
- 1.138188 2 0 ack 40 ------- 1 3.0 0.0 33 99
r 1.147976 3 2 ack 40 ------- 1 3.0 0.0 33 100
+ 1.147976 2 0 ack 40 ------- 1 3.0 0.0 33 100
- 1.147976 2 0 ack 40 ------- 1 3.0 0.0 33 100
r 1.148565 2 0 ack 40 ------- 1 3.0 0.0 33 99
+ 1.148565 0 2 tcp 1040 ------- 1 0.0 3.0 34 101
- 1.148565 0 2 tcp 1040 ------- 1 0.0 3.0 34 101
+ 1.148565 0 2 tcp 1040 ------- 1 0.0 3.0 35 102
+ 1.148565 0 2 tcp 1040 ------- 1 0.0 3.0 36 103
r 1.158353 2 0 ack 40 ------- 1 3.0 0.0 33 100
+ 1.158353 0 2 tcp 1040 ------- 1 0.0 3.0 37 104
- 1.158353 0 2 tcp 1040 ------- 1 0.0 3.0 35 102
- 1.168141 0 2 tcp 1040 ------- 1 0.0 3.0 36 103
r 1.168353 0 2 tcp 1040 ------- 1 0.0 3.0 34 101
+ 1.168353 2 3 tcp 1040 ------- 1 0.0 3.0 34 101
- 1.168353 2 3 tcp 1040 ------- 1 0.0 3.0 34 101
- 1.177929 0 2 tcp 1040 ------- 1 0.0 3.0 37 104
r 1.178141 0 2 tcp 1040 ------- 1 0.0 3.0 35 102
+ 1.178141 2 3 tcp 1040 ------- 1 0.0 3.0 35 102
- 1.178141 2 3 tcp 1040 ------- 1 0.0 3.0 35 102
r 1.186673 2 3 tcp 1040 ------- 1 0.0 3.0 34 101
+ 1.186673 3 2 ack 40 ------- 1 3.0 0.0 35 105
- 1.186673 3 2 ack 40 ------- 1 3.0 0.0 35 105
r 1.187929 0 2 tcp 1040 ------- 1 0.0 3.0 36 103
+ 1.187929 2 3 tcp 1040 ------- 1 0.0 3.0 36 103
- 1.187929 2 3 tcp 1040 ------- 1 0.0 3.0 36 103
r 1.196461 2 3 tcp 1040 ------- 1 0.0 3.0 35 102
+ 1.196461 3 2 ack 40 ------- 1 3.0 0.0 35 106
- 1.196461 3 2 ack 40 ------- 1 3.0 0.0 35 106
r 1.196993 3 2 ack 40 ------- 1 3.0 0.0 35 105
+ 1.196993 2 0 ack 40 ------- 1 3.0 0.0 35 105
- 1.196993 2 0 ack 40 ------- 1 3.0 0.0 35 105
r 1.197718 0 2 tcp 1040 ------- 1 0.0 3.0 37 104
+ 1.197718 2 3 tcp 1040 ------- 1 0.0 3.0 37 104
- 1.197718 2 3 tcp 1040 ------- 1 0.0 3.0 37 104
r 1.206249 2 3 tcp 1040 ------- 1 0.0 3.0 36 103
+ 1.206249 3 2 ack 40 ------- 1 3.0 0.0 37 107
- 1.206249 3 2 ack 40 ------- 1 3.0 0.0 37 107
r 1.206781 3 2 ack 40 ------- 1 3.0 0.0 35 106
+ 1.206781 2 0 ack 40 ------- 1 3.0 0.0 35 106
- 1.206781 2 0 ack 40 ------- 1 3.0 0.0 35 106
r 1.207369 2 0 ack 40 ------- 1 3.0 0.0 35 105
+ 1.207369 0 2 tcp 1040 ------- 1 0.0 3.0 38 108
- 1.207369 0 2 tcp 1040 ------- 1 0.0 3.0 38 108
+ 1.207369 0 2 tcp 1040 ------- 1 0.0 3.0 39 109
r 1.216038 2 3 tcp 1040 ------- 1 0.0 3.0 37 104
+ 1.216038 3 2 ack 40 ------- 1 3.0 0.0 37 110
- 1.216038 3 2 ack 40 ------- 1 3.0 0.0 37 110
r 1.216569 3 2 ack 40 ------- 1 3.0 0.0 37 107
+ 1.216569 2 0 ack 40 ------- 1 3.0 0.0 37 107
- 1.216569 2 0 ack 40 ------- 1 3.0 0.0 37 107
r 1.217158 2 0 ack 40 ------- 1 3.0 0.0 35 106
+ 1.217158 0 2 tcp 1040 ------- 1 0.0 3.0 40 111
- 1.217158 0 2 tcp 1040 ------- 1 0.0 3.0 39 109
r 1.226358 3 2 ack 40 ------- 1 3.0 0.0 37 110
+ 1.226358 2 0 ack 40 ------- 1 3.0 0.0 37 110
- 1.226358 2 0 ack 40 ------- 1 3.0 0.0 37 110
r 1.226946 2 0 ack 40 ------- 1 3.0 0.0 37 107
+ 1.226946 0 2 tcp 1040 ------- 1 0.0 3.0 41 112
+ 1.226946 0 2 tcp 1040 ------- 1 0.0 3.0 42 113
- 1.226946 0 2 tcp 1040 ------- 1 0.0 3.0 40 111