V -t * -v 1.0a5 -a 0
A -t * -n 1 -p 0 -o 0x7fffffff -c 30 -a 1
A -t * -h 1 -m 1073741823 -s 0
c -t * -i 1 -n Blue
c -t * -i 2 -n Red
n -t * -a 0 -s 0 -S UP -v circle -c black -i black
n -t * -a 1 -s 1 -S UP -v circle -c black -i black
n -t * -a 2 -s 2 -S UP -v circle -c black -i black
n -t * -a 3 -s 3 -S UP -v circle -c black -i black
l -t * -s 0 -d 2 -S UP -r 850000 -D 0.01 -c black
l -t * -s 1 -d 2 -S UP -r 2000000 -D 0.01 -c black
l -t * -s 2 -d 3 -S UP -r 1000000 -D 0.01 -c black
q -t * -s 0 -d 2 -a 0.5
+ -t 0.5 -s 0 -d 2 -p tcp -e 40 -c 1 -i 0 -a 1 -x {0.0 3.0 0 ------- null}
- -t 0.5 -s 0 -d 2 -p tcp -e 40 -c 1 -i 0 -a 1 -x {0.0 3.0 0 ------- null}
h -t 0.5 -s 0 -d 2 -p tcp -e 40 -c 1 -i 0 -a 1 -x {0.0 3.0 -1 ------- null}
r -t 0.510376470588235 -s 0 -d 2 -p tcp -e 40 -c 1 -i 0 -a 1 -x {0.0 3.0 0 ------- null}
+ -t 0.510376470588235 -s 2 -d 3 -p tcp -e 40 -c 1 -i 0 -a 1 -x {0.0 3.0 0 ------- null}
- -t 0.510376470588235 -s 2 -d 3 -p tcp -e 40 -c 1 -i 0 -a 1 -x {0.0 3.0 0 ------- null}
h -t 0.510376470588235 -s 2 -d 3 -p tcp -e 40 -c 1 -i 0 -a 1 -x {0.0 3.0 -1 ------- null}
r -t 0.520696470588235 -s 2 -d 3 -p tcp -e 40 -c 1 -i 0 -a 1 -x {0.0 3.0 0 ------- null}
+ -t 0.520696470588235 -s 3 -d 2 -p ack -e 40 -c 1 -i 1 -a 1 -x {3.0 0.0 0 ------- null}
- -t 0.520696470588235 -s 3 -d 2 -p ack -e 40 -c 1 -i 1 -a 1 -x {3.0 0.0 0 ------- null}
h -t 0.520696470588235 -s 3 -d 2 -p ack -e 40 -c 1 -i 1 -a 1 -x {3.0 0.0 -1 ------- null}
r -t 0.531016470588235 -s 3 -d 2 -p ack -e 40 -c 1 -i 1 -a 1 -x {3.0 0.0 0 ------- null}
+ -t 0.531016470588235 -s 2 -d 0 -p ack -e 40 -c 1 -i 1 -a 1 -x {3.0 0.0 0 ------- null}
- -t 0.531016470588235 -s 2 -d 0 -p ack -e 40 -c 1 -i 1 -a 1 -x {3.0 0.0 0 ------- null}
h -t 0.531016470588235 -s 2 -d 0 -p ack -e 40 -c 1 -i 1 -a 1 -x {3.0 0.0 -1 ------- null}
r -t 0.541392941176471 -s 2 -d 0 -p ack -e 40 -c 1 -i 1 -a 1 -x {3.0 0.0 0 ------- null}
+ -t 0.541392941176471 -s 0 -d 2 -p tcp -e 1040 -c 1 -i 2 -a 1 -x {0.0 3.0 1 ------- null}
- -t 0.541392941176471 -s 0 -d 2 -p tcp -e 1040 -c 1 -i 2 -a 1 -x {0.0 3.0 1 ------- null}
h -t 0.541392941176471 -s 0 -d 2 -p tcp -e 1040 -c 1 -i 2 -a 1 -x {0.0 3.0 -1 ------- null}
+ -t 0.541392941176471 -s 0 -d 2 -p tcp -e 1040 -c 1 -i 3 -a 1 -x {0.0 3.0 2 ------- null}
- -t 0.551181176470588 -s 0 -d 2 -p tcp -e 1040 -c 1 -i 3 -a 1 -x {0.0 3.0 2 ------- null}
h -t 0.551181176470588 -s 0 -d 2 -p tcp -e 1040 -c 1 -i 3 -a 1 -x {0.0 3.0 -1 ------- null}
r -t 0.561181176470588 -s 0 -d 2 -p tcp -e 1040 -c 1 -i 2 -a 1 -x {0.0 3.0 1 ------- null}
+ -t 0.561181176470588 -s 2 -d 3 -p tcp -e 1040 -c 1 -i 2 -a 1 -x {0.0 3.0 1 ------- null}
- -t 0.561181176470588 -s 2 -d 3 -p tcp -e 1040 -c 1 -i 2 -a 1 -x {0.0 3.0 1 ------- null}
h -t 0.561181176470588 -s 2 -d 3 -p tcp -e 1040 -c 1 -i 2 -a 1 -x {0.0 3.0 -1 ------- null}
r -t 0.570969411764706 -s 0 -d 2 -p tcp -e 1040 -c 1 -i 3 -a 1 -x {0.0 3.0 2 ------- null}
+ -t 0.570969411764706 -s 2 -d 3 -p tcp -e 1040 -c 1 -i 3 -a 1 -x {0.0 3.0 2 ------- null}
- -t 0.570969411764706 -s 2 -d 3 -p tcp -e 1040 -c 1 -i 3 -a 1 -x {0.0 3.0 2 ------- null}
h -t 0.570969411764706 -s 2 -d 3 -p tcp -e 1040 -c 1 -i 3 -a 1 -x {0.0 3.0 -1 ------- null}
r -t 0.579501176470588 -s 2 -d 3 -p tcp -e 1040 -c 1 -i 2 -a 1 -x {0.0 3.0 1 ------- null}
+ -t 0.579501176470588 -s 3 -d 2 -p ack -e 40 -c 1 -i 4 -a 1 -x {3.0 0.0 1 ------- null}
- -t 0.579501176470588 -s 3 -d 2 -p ack -e 40 -c 1 -i 4 -a 1 -x {3.0 0.0 1 ------- null}
h -t 0.579501176470588 -s 3 -d 2 -p ack -e 40 -c 1 -i 4 -a 1 -x {3.0 0.0 -1 ------- null}
r -t 0.589289411764706 -s 2 -d 3 -p tcp -e 1040 -c 1 -i 3 -a 1 -x {0.0 3.0 2 ------- null}
+ -t 0.589289411764706 -s 3 -d 2 -p ack -e 40 -c 1 -i 5 -a 1 -x {3.0 0.0 2 ------- null}
- -t 0.589289411764706 -s 3 -d 2 -p ack -e 40 -c 1 -i 5 -a 1 -x {3.0 0.0 2 ------- null}
h -t 0.589289411764706 -s 3 -d 2 -p ack -e 40 -c 1 -i 5 -a 1 -x {3.0 0.0 -1 ------- null}
r -t 0.589821176470588 -s 3 -d 2 -p ack -e 40 -c 1 -i 4 -a 1 -x {3.0 0.0 1 ------- null}
+ -t 0.589821176470588 -s 2 -d 0 -p ack -e 40 -c 1 -i 4 -a 1 -x {3.0 0.0 1 ------- null}
- -t 0.589821176470588 -s 2 -d 0 -p ack -e 40 -c 1 -i 4 -a 1 -x {3.0 0.0 1 ------- null}
h -t 0.589821176470588 -s 2 -d 0 -p ack -e 40 -c 1 -i 4 -a 1 -x {3.0 0.0 -1 ------- null}
r -t 0.599609411764706 -s 3 -d 2 -p ack -e 40 -c 1 -i 5 -a 1 -x {3.0 0.0 2 ------- null}
+ -t 0.599609411764706 -s 2 -d 0 -p ack -e 40 -c 1 -i 5 -a 1 -x {3.0 0.0 2 ------- null}
- -t 0.599609411764706 -s 2 -d 0 -p ack -e 40 -c 1 -i 5 -a 1 -x {3.0 0.0 2 ------- null}
h -t 0.599609411764706 -s 2 -d 0 -p ack -e 40 -c 1 -i 5 -a 1 -x {3.0 0.0 -1 ------- null}
r -t 0.600197647058824 -s 2 -d 0 -p ack -e 40 -c 1 -i 4 -a 1 -x {3.0 0.0 1 ------- null}
+ -t 0.600197647058824 -s 0 -d 2 -p tcp -e 1040 -c 1 -i 6 -a 1 -x {0.0 3.0 3 ------- null}
- -t 0.600197647058824 -s 0 -d 2 -p tcp -e 1040 -c 1 -i 6 -a 1 -x {0.0 3.0 3 ------- null}
h -t 0.600197647058824 -s 0 -d 2 -p tcp -e 1040 -c 1 -i 6 -a 1 -x {0.0 3.0 -1 ------- null}
+ -t 0.600197647058824 -s 0 -d 2 -p tcp -e 1040 -c 1 -i 7 -a 1 -x {0.0 3.0 4 ------- null}
r -t 0.609985882352941 -s 2 -d 0 -p ack -e 40 -c 1 -i 5 -a 1 -x {3.0 0.0 2 ------- null}
+ -t 0.609985882352941 -s 0 -d 2 -p tcp -e 1040 -c 1 -i 8 -a 1 -x {0.0 3.0 5 ------- null}
+ -t 0.609985882352941 -s 0 -d 2 -p tcp -e 1040 -c 1 -i 9 -a 1 -x {0.0 3.0 6 ------- null}
- -t 0.609985882352941 -s 0 -d 2 -p tcp -e 1040 -c 1 -i 7 -a 1 -x {0.0 3.0 4 ------- null}
h -t 0.609985882352941 -s 0 -d 2 -p tcp -e 1040 -c 1 -i 7 -a 1 -x {0.0 3.0 -1 ------- null}
- -t 0.619774117647059 -s 0 -d 2 -p tcp -e 1040 -c 1 -i 8 -a 1 -x {0.0 3.0 5 ------- null}
h -t 0.619774117647059 -s 0 -d 2 -p tcp -e 1040 -c 1 -i 8 -a 1 -x {0.0 3.0 -1 ------- null}
r -t 0.619985882352941 -s 0 -d 2 -p tcp -e 1040 -c 1 -i 6 -a 1 -x {0.0 3.0 3 ------- null}
+ -t 0.619985882352941 -s 2 -d 3 -p tcp -e 1040 -c 1 -i 6 -a 1 -x {0.0 3.0 3 ------- null}
- -t 0.619985882352941 -s 2 -d 3 -p tcp -e 1040 -c 1 -i 6 -a 1 -x {0.0 3.0 3 ------- null}
h -t 0.619985882352941 -s 2 -d 3 -p tcp -e 1040 -c 1 -i 6 -a 1 -x {0.0 3.0 -1 ------- null}
- -t 0.629562352941177 -s 0 -d 2 -p tcp -e 1040 -c 1 -i 9 -a 1 -x {0.0 3.0 6 ------- null}
h -t 0.629562352941177 -s 0 -d 2 -p tcp -e 1040 -c 1 -i 9 -a 1 -x {0.0 3.0 -1 ------- null}
r -t 0.629774117647059 -s 0 -d 2 -p tcp -e 1040 -c 1 -i 7 -a 1 -x {0.0 3.0 4 ------- null}
+ -t 0.629774117647059 -s 2 -d 3 -p tcp -e 1040 -c 1 -i 7 -a 1 -x {0.0 3.0 4 ------- null}
- -t 0.629774117647059 -s 2 -d 3 -p tcp -e 1040 -c 1 -i 7 -a 1 -x {0.0 3.0 4 ------- null}
h -t 0.629774117647059 -s 2 -d 3 -p tcp -e 1040 -c 1 -i 7 -a 1 -x {0.0 3.0 -1 ------- null}
r -t 0.638305882352941 -s 2 -d 3 -p tcp -e 1040 -c 1 -i 6 -a 1 -x {0.0 3.0 3 ------- null}
+ -t 0.638305882352941 -s 3 -d 2 -p ack -e 40 -c 1 -i 10 -a 1 -x {3.0 0.0 3 ------- null}
- -t 0.638305882352941 -s 3 -d 2 -p ack -e 40 -c 1 -i 10 -a 1 -x {3.0 0.0 3 ------- null}
h -t 0.638305882352941 -s 3 -d 2 -p ack -e 40 -c 1 -i 10 -a 1 -x {3.0 0.0 -1 ------- null}
r -t 0.639562352941177 -s 0 -d 2 -p tcp -e 1040 -c 1 -i 8 -a 1 -x {0.0 3.0 5 ------- null}
+ -t 0.639562352941177 -s 2 -d 3 -p tcp -e 1040 -c 1 -i 8 -a 1 -x {0.0 3.0 5 ------- null}
- -t 0.639562352941177 -s 2 -d 3 -p tcp -e 1040 -c 1 -i 8 -a 1 -x {0.0 3.0 5 ------- null}
h -t 0.639562352941177 -s 2 -d 3 -p tcp -e 1040 -c 1 -i 8 -a 1 -x {0.0 3.0 -1 ------- null}
r -t 0.648094117647059 -s 2 -d 3 -p tcp -e 1040 -c 1 -i 7 -a 1 -x {0.0 3.0 4 ------- null}
+ -t 0.648094117647059 -s 3 -d 2 -p ack -e 40 -c 1 -i 11 -a 1 -x {3.0 0.0 4 ------- null}
- -t 0.648094117647059 -s 3 -d 2 -p ack -e 40 -c 1 -i 11 -a 1 -x {3.0 0.0 4 ------- null}
h -t 0.648094117647059 -s 3 -d 2 -p ack -e 40 -c 1 -i 11 -a 1 -x {3.0 0.0 -1 ------- null}
r -t 0.648625882352941 -s 3 -d 2 -p ack -e 40 -c 1 -i 10 -a 1 -x {3.0 0.0 3 ------- null}
+ -t 0.648625882352941 -s 2 -d 0 -p ack -e 40 -c 1 -i 10 -a 1 -x {3.0 0.0 3 ------- null}
- -t 0.648625882352941 -s 2 -d 0 -p ack -e 40 -c 1 -i 10 -a 1 -x {3.0 0.0 3 ------- null}
h -t 0.648625882352941 -s 2 -d 0 -p ack -e 40 -c 1 -i 10 -a 1 -x {3.0 0.0 -1 ------- null}
r -t 0.649350588235294 -s 0 -d 2 -p tcp -e 1040 -c 1 -i 9 -a 1 -x {0.0 3.0 6 ------- null}
+ -t 0.649350588235294 -s 2 -d 3 -p tcp -e 1040 -c 1 -i 9 -a 1 -x {0.0 3.0 6 ------- null}
- -t 0.649350588235294 -s 2 -d 3 -p tcp -e 1040 -c 1 -i 9 -a 1 -x {0.0 3.0 6 ------- null}
h -t 0.649350588235294 -s 2 -d 3 -p tcp -e 1040 -c 1 -i 9 -a 1 -x {0.0 3.0 -1 ------- null}
r -t 0.657882352941177 -s 2 -d 3 -p tcp -e 1040 -c 1 -i 8 -a 1 -x {0.0 3.0 5 ------- null}
+ -t 0.657882352941177 -s 3 -d 2 -p ack -e 40 -c 1 -i 12 -a 1 -x {3.0 0.0 5 ------- null}
- -t 0.657882352941177 -s 3 -d 2 -p ack -e 40 -c 1 -i 12 -a 1 -x {3.0 0.0 5 ------- null}
h -t 0.657882352941177 -s 3 -d 2 -p ack -e 40 -c 1 -i 12 -a 1 -x {3.0 0.0 -1 ------- null}
r -t 0.658414117647059 -s 3 -d 2 -p ack -e 40 -c 1 -i 11 -a 1 -x {3.0 0.0 4 ------- null}
+ -t 0.658414117647059 -s 2 -d 0 -p ack -e 40 -c 1 -i 11 -a 1 -x {3.0 0.0 4 ------- null}
- -t 0.658414117647059 -s 2 -d 0 -p ack -e 40 -c 1 -i 11 -a 1 -x {3.0 0.0 4 ------- null}
h -t 0.658414117647059 -s 2 -d 0 -p ack -e 40 -c 1 -i 11 -a 1 -x {3.0 0.0 -1 ------- null}
r -t 0.659002352941177 -s 2 -d 0 -p ack -e 40 -c 1 -i 10 -a 1 -x {3.0 0.0 3 ------- null}
+ -t 0.659002352941177 -s 0 -d 2 -p tcp -e 1040 -c 1 -i 13 -a 1 -x {0.0 3.0 7 ------- null}
- -t 0.659002352941177 -s 0 -d 2 -p tcp -e 1040 -c 1 -i 13 -a 1 -x {0.0 3.0 7 ------- null}
h -t 0.659002352941177 -s 0 -d 2 -p tcp -e 1040 -c 1 -i 13 -a 1 -x {0.0 3.0 -1 ------- null}
+ -t 0.659002352941177 -s 0 -d 2 -p tcp -e 1040 -c 1 -i 14 -a 1 -x {0.0 3.0 8 ------- null}
r -t 0.667670588235294 -s 2 -d 3 -p tcp -e 1040 -c 1 -i 9 -a 1 -x {0.0 3.0 6 ------- null}
+ -t 0.667670588235294 -s 3 -d 2 -p ack -e 40 -c 1 -i 15 -a 1 -x {3.0 0.0 6 ------- null}
- -t 0.667670588235294 -s 3 -d 2 -p ack -e 40 -c 1 -i 15 -a 1 -x {3.0 0.0 6 ------- null}
h -t 0.667670588235294 -s 3 -d 2 -p ack -e 40 -c 1 -i 15 -a 1 -x {3.0 0.0 -1 ------- null}
r -t 0.668202352941177 -s 3 -d 2 -p ack -e 40 -c 1 -i 12 -a 1 -x {3.0 0.0 5 ------- null}
+ -t 0.668202352941177 -s 2 -d 0 -p ack -e 40 -c 1 -i 12 -a 1 -x {3.0 0.0 5 ------- null}
- -t 0.668202352941177 -s 2 -d 0 -p ack -e 40 -c 1 -i 12 -a 1 -x {3.0 0.0 5 ------- null}
h -t 0.668202352941177 -s 2 -d 0 -p ack -e 40 -c 1 -i 12 -a 1 -x {3.0 0.0 -1 ------- null}
r -t 0.668790588235294 -s 2 -d 0 -p ack -e 40 -c 1 -i 11 -a 1 -x {3.0 0.0 4 ------- null}
+ -t 0.668790588235294 -s 0 -d 2 -p tcp -e 1040 -c 1 -i 16 -a 1 -x {0.0 3.0 9 ------- null}
+ -t 0.668790588235294 -s 0 -d 2 -p tcp -e 1040 -c 1 -i 17 -a 1 -x {0.0 3.0 10 ------- null}
- -t 0.668790588235294 -s 0 -d 2 -p tcp -e 1040 -c 1 -i 14 -a 1 -x {0.0 3.0 8 ------- null}
h -t 0.668790588235294 -s 0 -d 2 -p tcp -e 1040 -c 1 -i 14 -a 1 -x {0.0 3.0 -1 ------- null}
r -t 0.677990588235294 -s 3 -d 2 -p ack -e 40 -c 1 -i 15 -a 1 -x {3.0 0.0 6 ------- null}
+ -t 0.677990588235294 -s 2 -d 0 -p ack -e 40 -c 1 -i 15 -a 1 -x {3.0 0.0 6 ------- null}
- -t 0.677990588235294 -s 2 -d 0 -p ack -e 40 -c 1 -i 15 -a 1 -x {3.0 0.0 6 ------- null}
h -t 0.677990588235294 -s 2 -d 0 -p ack -e 40 -c 1 -i 15 -a 1 -x {3.0 0.0 -1 ------- null}
r -t 0.678578823529412 -s 2 -d 0 -p ack -e 40 -c 1 -i 12 -a 1 -x {3.0 0.0 5 ------- null}
+ -t 0.678578823529412 -s 0 -d 2 -p tcp -e 1040 -c 1 -i 18 -a 1 -x {0.0 3.0 11 ------- null}
+ -t 0.678578823529412 -s 0 -d 2 -p tcp -e 1040 -c 1 -i 19 -a 1 -x {0.0 3.0 12 ------- null}
- -t 0.678578823529412 -s 0 -d 2 -p tcp -e 1040 -c 1 -i 16 -a 1 -x {0.0 3.0 9 ------- null}
h -t 0.678578823529412 -s 0 -d 2 -p tcp -e 1040 -c 1 -i 16 -a 1 -x {0.0 3.0 -1 ------- null}
r -t 0.678790588235294 -s 0 -d 2 -p tcp -e 1040 -c 1 -i 13 -a 1 -x {0.0 3.0 7 ------- null}
+ -t 0.678790588235294 -s 2 -d 3 -p tcp -e 1040 -c 1 -i 13 -a 1 -x {0.0 3.0 7 ------- null}
- -t 0.678790588235294 -s 2 -d 3 -p tcp -e 1040 -c 1 -i 13 -a 1 -x {0.0 3.0 7 ------- null}
h -t 0.678790588235294 -s 2 -d 3 -p tcp -e 1040 -c 1 -i 13 -a 1 -x {0.0 3.0 -1 ------- null}
r -t 0.68836705882353 -s 2 -d 0 -p ack -e 40 -c 1 -i 15 -a 1 -x {3.0 0.0 6 ------- null}
+ -t 0.68836705882353 -s 0 -d 2 -p tcp -e 1040 -c 1 -i 20 -a 1 -x {0.0 3.0 13 ------- null}
+ -t 0.68836705882353 -s 0 -d 2 -p tcp -e 1040 -c 1 -i 21 -a 1 -x {0.0 3.0 14 ------- null}
- -t 0.68836705882353 -s 0 -d 2 -p tcp -e 1040 -c 1 -i 17 -a 1 -x {0.0 3.0 10 ------- null}
h -t 0.68836705882353 -s 0 -d 2 -p tcp -e 1040 -c 1 -i 17 -a 1 -x {0.0 3.0 -1 ------- null}
r -t 0.688578823529412 -s 0 -d 2 -p tcp -e 1040 -c 1 -i 14 -a 1 -x {0.0 3.0 8 ------- null}
+ -t 0.688578823529412 -s 2 -d 3 -p tcp -e 1040 -c 1 -i 14 -a 1 -x {0.0 3.0 8 ------- null}
- -t 0.688578823529412 -s 2 -d 3 -p tcp -e 1040 -c 1 -i 14 -a 1 -x {0.0 3.0 8 ------- null}
h -t 0.688578823529412 -s 2 -d 3 -p tcp -e 1040 -c 1 -i 14 -a 1 -x {0.0 3.0 -1 ------- null}
r -t 0.697110588235294 -s 2 -d 3 -p tcp -e 1040 -c 1 -i 13 -a 1 -x {0.0 3.0 7 ------- null}
+ -t 0.697110588235294 -s 3 -d 2 -p ack -e 40 -c 1 -i 22 -a 1 -x {3.0 0.0 7 ------- null}
- -t 0.697110588235294 -s 3 -d 2 -p ack -e 40 -c 1 -i 22 -a 1 -x {3.0 0.0 7 ------- null}
h -t 0.697110588235294 -s 3 -d 2 -p ack -e 40 -c 1 -i 22 -a 1 -x {3.0 0.0 -1 ------- null}
- -t 0.698155294117647 -s 0 -d 2 -p tcp -e 1040 -c 1 -i 18 -a 1 -x {0.0 3.0 11 ------- null}
h -t 0.698155294117647 -s 0 -d 2 -p tcp -e 1040 -c 1 -i 18 -a 1 -x {0.0 3.0 -1 ------- null}
r -t 0.69836705882353 -s 0 -d 2 -p tcp -e 1040 -c 1 -i 16 -a 1 -x {0.0 3.0 9 ------- null}
+ -t 0.69836705882353 -s 2 -d 3 -p tcp -e 1040 -c 1 -i 16 -a 1 -x {0.0 3.0 9 ------- null}
- -t 0.69836705882353 -s 2 -d 3 -p tcp -e 1040 -c 1 -i 16 -a 1 -x {0.0 3.0 9 ------- null}
h -t 0.69836705882353 -s 2 -d 3 -p tcp -e 1040 -c 1 -i 16 -a 1 -x {0.0 3.0 -1 ------- null}
r -t 0.706898823529412 -s 2 -d 3 -p tcp -e 1040 -c 1 -i 14 -a 1 -x {0.0 3.0 8 ------- null}
+ -t 0.706898823529412 -s 3 -d 2 -p ack -e 40 -c 1 -i 23 -a 1 -x {3.0 0.0 8 ------- null}
- -t 0.706898823529412 -s 3 -d 2 -p ack -e 40 -c 1 -i 23 -a 1 -x {3.0 0.0 8 ------- null}
h -t 0.706898823529412 -s 3 -d 2 -p ack -e 40 -c 1 -i 23 -a 1 -x {3.0 0.0 -1 ------- null}
r -t 0.707430588235294 -s 3 -d 2 -p ack -e 40 -c 1 -i 22 -a 1 -x {3.0 0.0 7 ------- null}
+ -t 0.707430588235294 -s 2 -d 0 -p ack -e 40 -c 1 -i 22 -a 1 -x {3.0 0.0 7 ------- null}
- -t 0.707430588235294 -s 2 -d 0 -p ack -e 40 -c 1 -i 22 -a 1 -x {3.0 0.0 7 ------- null}
h -t 0.707430588235294 -s 2 -d 0 -p ack -e 40 -c 1 -i 22 -a 1 -x {3.0 0.0 -1 ------- null}
- -t 0.707943529411765 -s 0 -d 2 -p tcp -e 1040 -c 1 -i 19 -a 1 -x {0.0 3.0 12 ------- null}
h -t 0.707943529411765 -s 0 -d 2 -p tcp -e 1040 -c 1 -i 19 -a 1 -x {0.0 3.0 -1 ------- null}
r -t 0.708155294117647 -s 0 -d 2 -p tcp -e 1040 -c 1 -i 17 -a 1 -x {0.0 3.0 10 ------- null}
+ -t 0.708155294117647 -s 2 -d 3 -p tcp -e 1040 -c 1 -i 17 -a 1 -x {0.0 3.0 10 ------- null}
- -t 0.708155294117647 -s 2 -d 3 -p tcp -e 1040 -c 1 -i 17 -a 1 -x {0.0 3.0 10 ------- null}
h -t 0.708155294117647 -s 2 -d 3 -p tcp -e 1040 -c 1 -i 17 -a 1 -x {0.0 3.0 -1 ------- null}
r -t 0.71668705882353 -s 2 -d 3 -p tcp -e 1040 -c 1 -i 16 -a 1 -x {0.0 3.0 9 ------- null}
+ -t 0.71668705882353 -s 3 -d 2 -p ack -e 40 -c 1 -i 24 -a 1 -x {3.0 0.0 9 ------- null}
- -t 0.71668705882353 -s 3 -d 2 -p ack -e 40 -c 1 -i 24 -a 1 -x {3.0 0.0 9 ------- null}
h -t 0.71668705882353 -s 3 -d 2 -p ack -e 40 -c 1 -i 24 -a 1 -x {3.0 0.0 -1 ------- null}
r -t 0.717218823529412 -s 3 -d 2 -p ack -e 40 -c 1 -i 23 -a 1 -x {3.0 0.0 8 ------- null}
+ -t 0.717218823529412 -s 2 -d 0 -p ack -e 40 -c 1 -i 23 -a 1 -x {3.0 0.0 8 ------- null}
- -t 0.717218823529412 -s 2 -d 0 -p ack -e 40 -c 1 -i 23 -a 1 -x {3.0 0.0 8 ------- null}
h -t 0.717218823529412 -s 2 -d 0 -p ack -e 40 -c 1 -i 23 -a 1 -x {3.0 0.0 -1 ------- null}
- -t 0.717731764705883 -s 0 -d 2 -p tcp -e 1040 -c 1 -i 20 -a 1 -x {0.0 3.0 13 ------- null}
h -t 0.717731764705883 -s 0 -d 2 -p tcp -e 1040 -c 1 -i 20 -a 1 -x {0.0 3.0 -1 ------- null}
r -t 0.71780705882353 -s 2 -d 0 -p ack -e 40 -c 1 -i 22 -a 1 -x {3.0 0.0 7 ------- null}
+ -t 0.71780705882353 -s 0 -d 2 -p tcp -e 1040 -c 1 -i 25 -a 1 -x {0.0 3.0 15 ------- null}
+ -t 0.71780705882353 -s 0 -d 2 -p tcp -e 1040 -c 1 -i 26 -a 1 -x {0.0 3.0 16 ------- null}
r -t 0.717943529411765 -s 0 -d 2 -p tcp -e 1040 -c 1 -i 18 -a 1 -x {0.0 3.0 11 ------- null}
+ -t 0.717943529411765 -s 2 -d 3 -p tcp -e 1040 -c 1 -i 18 -a 1 -x {0.0 3.0 11 ------- null}
- -t 0.717943529411765 -s 2 -d 3 -p tcp -e 1040 -c 1 -i 18 -a 1 -x {0.0 3.0 11 ------- null}
h -t 0.717943529411765 -s 2 -d 3 -p tcp -e 1040 -c 1 -i 18 -a 1 -x {0.0 3.0 -1 ------- null}
r -t 0.726475294117647 -s 2 -d 3 -p tcp -e 1040 -c 1 -i 17 -a 1 -x {0.0 3.0 10 ------- null}
+ -t 0.726475294117647 -s 3 -d 2 -p ack -e 40 -c 1 -i 27 -a 1 -x {3.0 0.0 10 ------- null}
- -t 0.726475294117647 -s 3 -d 2 -p ack -e 40 -c 1 -i 27 -a 1 -x {3.0 0.0 10 ------- null}
h -t 0.726475294117647 -s 3 -d 2 -p ack -e 40 -c 1 -i 27 -a 1 -x {3.0 0.0 -1 ------- null}
r -t 0.72700705882353 -s 3 -d 2 -p ack -e 40 -c 1 -i 24 -a 1 -x {3.0 0.0 9 ------- null}
+ -t 0.72700705882353 -s 2 -d 0 -p ack -e 40 -c 1 -i 24 -a 1 -x {3.0 0.0 9 ------- null}
- -t 0.72700705882353 -s 2 -d 0 -p ack -e 40 -c 1 -i 24 -a 1 -x {3.0 0.0 9 ------- null}
h -t 0.72700705882353 -s 2 -d 0 -p ack -e 40 -c 1 -i 24 -a 1 -x {3.0 0.0 -1 ------- null}
- -t 0.72752 -s 0 -d 2 -p tcp -e 1040 -c 1 -i 21 -a 1 -x {0.0 3.0 14 ------- null}
h -t 0.72752 -s 0 -d 2 -p tcp -e 1040 -c 1 -i 21 -a 1 -x {0.0 3.0 -1 ------- null}
r -t 0.727595294117647 -s 2 -d 0 -p ack -e 40 -c 1 -i 23 -a 1 -x {3.0 0.0 8 ------- null}
+ -t 0.727595294117647 -s 0 -d 2 -p tcp -e 1040 -c 1 -i 28 -a 1 -x {0.0 3.0 17 ------- null}
+ -t 0.727595294117647 -s 0 -d 2 -p tcp -e 1040 -c 1 -i 29 -a 1 -x {0.0 3.0 18 ------- null}
r -t 0.727731764705883 -s 0 -d 2 -p tcp -e 1040 -c 1 -i 19 -a 1 -x {0.0 3.0 12 ------- null}
+ -t 0.727731764705883 -s 2 -d 3 -p tcp -e 1040 -c 1 -i 19 -a 1 -x {0.0 3.0 12 ------- null}
- -t 0.727731764705883 -s 2 -d 3 -p tcp -e 1040 -c 1 -i 19 -a 1 -x {0.0 3.0 12 ------- null}
h -t 0.727731764705883 -s 2 -d 3 -p tcp -e 1040 -c 1 -i 19 -a 1 -x {0.0 3.0 -1 ------- null}
r -t 0.736263529411765 -s 2 -d 3 -p tcp -e 1040 -c 1 -i 18 -a 1 -x {0.0 3.0 11 ------- null}
+ -t 0.736263529411765 -s 3 -d 2 -p ack -e 40 -c 1 -i 30 -a 1 -x {3.0 0.0 11 ------- null}
- -t 0.736263529411765 -s 3 -d 2 -p ack -e 40 -c 1 -i 30 -a 1 -x {3.0 0.0 11 ------- null}
h -t 0.736263529411765 -s 3 -d 2 -p ack -e 40 -c 1 -i 30 -a 1 -x {3.0 0.0 -1 ------- null}
r -t 0.736795294117647 -s 3 -d 2 -p ack -e 40 -c 1 -i 27 -a 1 -x {3.0 0.0 10 ------- null}
+ -t 0.736795294117647 -s 2 -d 0 -p ack -e 40 -c 1 -i 27 -a 1 -x {3.0 0.0 10 ------- null}
- -t 0.736795294117647 -s 2 -d 0 -p ack -e 40 -c 1 -i 27 -a 1 -x {3.0 0.0 10 ------- null}
h -t 0.736795294117647 -s 2 -d 0 -p ack -e 40 -c 1 -i 27 -a 1 -x {3.0 0.0 -1 ------- null}
- -t 0.737308235294118 -s 0 -d 2 -p tcp -e 1040 -c 1 -i 25 -a 1 -x {0.0 3.0 15 ------- null}
h -t 0.737308235294118 -s 0 -d 2 -p tcp -e 1040 -c 1 -i 25 -a 1 -x {0.0 3.0 -1 ------- null}
r -t 0.737383529411765 -s 2 -d 0 -p ack -e 40 -c 1 -i 24 -a 1 -x {3.0 0.0 9 ------- null}
+ -t 0.737383529411765 -s 0 -d 2 -p tcp -e 1040 -c 1 -i 31 -a 1 -x {0.0 3.0 19 ------- null}
+ -t 0.737383529411765 -s 0 -d 2 -p tcp -e 1040 -c 1 -i 32 -a 1 -x {0.0 3.0 20 ------- null}
r -t 0.73752 -s 0 -d 2 -p tcp -e 1040 -c 1 -i 20 -a 1 -x {0.0 3.0 13 ------- null}
+ -t 0.73752 -s 2 -d 3 -p tcp -e 1040 -c 1 -i 20 -a 1 -x {0.0 3.0 13 ------- null}
- -t 0.73752 -s 2 -d 3 -p tcp -e 1040 -c 1 -i 20 -a 1 -x {0.0 3.0 13 ------- null}
h -t 0.73752 -s 2 -d 3 -p tcp -e 1040 -c 1 -i 20 -a 1 -x {0.0 3.0 -1 ------- null}
r -t 0.746051764705883 -s 2 -d 3 -p tcp -e 1040 -c 1 -i 19 -a 1 -x {0.0 3.0 12 ------- null}
+ -t 0.746051764705883 -s 3 -d 2 -p ack -e 40 -c 1 -i 33 -a 1 -x {3.0 0.0 12 ------- null}
- -t 0.746051764705883 -s 3 -d 2 -p ack -e 40 -c 1 -i 33 -a 1 -x {3.0 0.0 12 ------- null}
h -t 0.746051764705883 -s 3 -d 2 -p ack -e 40 -c 1 -i 33 -a 1 -x {3.0 0.0 -1 ------- null}
r -t 0.746583529411765 -s 3 -d 2 -p ack -e 40 -c 1 -i 30 -a 1 -x {3.0 0.0 11 ------- null}
+ -t 0.746583529411765 -s 2 -d 0 -p ack -e 40 -c 1 -i 30 -a 1 -x {3.0 0.0 11 ------- null}
- -t 0.746583529411765 -s 2 -d 0 -p ack -e 40 -c 1 -i 30 -a 1 -x {3.0 0.0 11 ------- null}
h -t 0.746583529411765 -s 2 -d 0 -p ack -e 40 -c 1 -i 30 -a 1 -x {3.0 0.0 -1 ------- null}
- -t 0.747096470588235 -s 0 -d 2 -p tcp -e 1040 -c 1 -i 26 -a 1 -x {0.0 3.0 16 ------- null}
h -t 0.747096470588235 -s 0 -d 2 -p tcp -e 1040 -c 1 -i 26 -a 1 -x {0.0 3.0 -1 ------- null}
r -t 0.747171764705883 -s 2 -d 0 -p ack -e 40 -c 1 -i 27 -a 1 -x {3.0 0.0 10 ------- null}
+ -t 0.747171764705883 -s 0 -d 2 -p tcp -e 1040 -c 1 -i 34 -a 1 -x {0.0 3.0 21 ------- null}
+ -t 0.747171764705883 -s 0 -d 2 -p tcp -e 1040 -c 1 -i 35 -a 1 -x {0.0 3.0 22 ------- null}
r -t 0.747308235294118 -s 0 -d 2 -p tcp -e 1040 -c 1 -i 21 -a 1 -x {0.0 3.0 14 ------- null}
+ -t 0.747308235294118 -s 2 -d 3 -p tcp -e 1040 -c 1 -i 21 -a 1 -x {0.0 3.0 14 ------- null}
- -t 0.747308235294118 -s 2 -d 3 -p tcp -e 1040 -c 1 -i 21 -a 1 -x {0.0 3.0 14 ------- null}
h -t 0.747308235294118 -s 2 -d 3 -p tcp -e 1040 -c 1 -i 21 -a 1 -x {0.0 3.0 -1 ------- null}
r -t 0.75584 -s 2 -d 3 -p tcp -e 1040 -c 1 -i 20 -a 1 -x {0.0 3.0 13 ------- null}
+ -t 0.75584 -s 3 -d 2 -p ack -e 40 -c 1 -i 36 -a 1 -x {3.0 0.0 13 ------- null}
- -t 0.75584 -s 3 -d 2 -p ack -e 40 -c 1 -i 36 -a 1 -x {3.0 0.0 13 ------- null}
h -t 0.75584 -s 3 -d 2 -p ack -e 40 -c 1 -i 36 -a 1 -x {3.0 0.0 -1 ------- null}
r -t 0.756371764705883 -s 3 -d 2 -p ack -e 40 -c 1 -i 33 -a 1 -x {3.0 0.0 12 ------- null}
+ -t 0.756371764705883 -s 2 -d 0 -p ack -e 40 -c 1 -i 33 -a 1 -x {3.0 0.0 12 ------- null}
- -t 0.756371764705883 -s 2 -d 0 -p ack -e 40 -c 1 -i 33 -a 1 -x {3.0 0.0 12 ------- null}
h -t 0.756371764705883 -s 2 -d 0 -p ack -e 40 -c 1 -i 33 -a 1 -x {3.0 0.0 -1 ------- null}
- -t 0.756884705882353 -s 0 -d 2 -p tcp -e 1040 -c 1 -i 28 -a 1 -x {0.0 3.0 17 ------- null}
h -t 0.756884705882353 -s 0 -d 2 -p tcp -e 1040 -c 1 -i 28 -a 1 -x {0.0 3.0 -1 ------- null}
r -t 0.75696 -s 2 -d 0 -p ack -e 40 -c 1 -i 30 -a 1 -x {3.0 0.0 11 ------- null}
+ -t 0.75696 -s 0 -d 2 -p tcp -e 1040 -c 1 -i 37 -a 1 -x {0.0 3.0 23 ------- null}
+ -t 0.75696 -s 0 -d 2 -p tcp -e 1040 -c 1 -i 38 -a 1 -x {0.0 3.0 24 ------- null}
r -t 0.757096470588235 -s 0 -d 2 -p tcp -e 1040 -c 1 -i 25 -a 1 -x {0.0 3.0 15 ------- null}
+ -t 0.757096470588235 -s 2 -d 3 -p tcp -e 1040 -c 1 -i 25 -a 1 -x {0.0 3.0 15 ------- null}
- -t 0.757096470588235 -s 2 -d 3 -p tcp -e 1040 -c 1 -i 25 -a 1 -x {0.0 3.0 15 ------- null}
h -t 0.757096470588235 -s 2 -d 3 -p tcp -e 1040 -c 1 -i 25 -a 1 -x {0.0 3.0 -1 ------- null}
r -t 0.765628235294118 -s 2 -d 3 -p tcp -e 1040 -c 1 -i 21 -a 1 -x {0.0 3.0 14 ------- null}
+ -t 0.765628235294118 -s 3 -d 2 -p ack -e 40 -c 1 -i 39 -a 1 -x {3.0 0.0 14 ------- null}
- -t 0.765628235294118 -s 3 -d 2 -p ack -e 40 -c 1 -i 39 -a 1 -x {3.0 0.0 14 ------- null}
h -t 0.765628235294118 -s 3 -d 2 -p ack -e 40 -c 1 -i 39 -a 1 -x {3.0 0.0 -1 ------- null}
r -t 0.76616 -s 3 -d 2 -p ack -e 40 -c 1 -i 36 -a 1 -x {3.0 0.0 13 ------- null}
+ -t 0.76616 -s 2 -d 0 -p ack -e 40 -c 1 -i 36 -a 1 -x {3.0 0.0 13 ------- null}
- -t 0.76616 -s 2 -d 0 -p ack -e 40 -c 1 -i 36 -a 1 -x {3.0 0.0 13 ------- null}
h -t 0.76616 -s 2 -d 0 -p ack -e 40 -c 1 -i 36 -a 1 -x {3.0 0.0 -1 ------- null}
- -t 0.766672941176471 -s 0 -d 2 -p tcp -e 1040 -c 1 -i 29 -a 1 -x {0.0 3.0 18 ------- null}
h -t 0.766672941176471 -s 0 -d 2 -p tcp -e 1040 -c 1 -i 29 -a 1 -x {0.0 3.0 -1 ------- null}
r -t 0.766748235294118 -s 2 -d 0 -p ack -e 40 -c 1 -i 33 -a 1 -x {3.0 0.0 12 ------- null}
+ -t 0.766748235294118 -s 0 -d 2 -p tcp -e 1040 -c 1 -i 40 -a 1 -x {0.0 3.0 25 ------- null}
+ -t 0.766748235294118 -s 0 -d 2 -p tcp -e 1040 -c 1 -i 41 -a 1 -x {0.0 3.0 26 ------- null}
r -t 0.766884705882353 -s 0 -d 2 -p tcp -e 1040 -c 1 -i 26 -a 1 -x {0.0 3.0 16 ------- null}
+ -t 0.766884705882353 -s 2 -d 3 -p tcp -e 1040 -c 1 -i 26 -a 1 -x {0.0 3.0 16 ------- null}
- -t 0.766884705882353 -s 2 -d 3 -p tcp -e 1040 -c 1 -i 26 -a 1 -x {0.0 3.0 16 ------- null}
h -t 0.766884705882353 -s 2 -d 3 -p tcp -e 1040 -c 1 -i 26 -a 1 -x {0.0 3.0 -1 ------- null}
r -t 0.775416470588235 -s 2 -d 3 -p tcp -e 1040 -c 1 -i 25 -a 1 -x {0.0 3.0 15 ------- null}
+ -t 0.775416470588235 -s 3 -d 2 -p ack -e 40 -c 1 -i 42 -a 1 -x {3.0 0.0 15 ------- null}
- -t 0.775416470588235 -s 3 -d 2 -p ack -e 40 -c 1 -i 42 -a 1 -x {3.0 0.0 15 ------- null}
h -t 0.775416470588235 -s 3 -d 2 -p ack -e 40 -c 1 -i 42 -a 1 -x {3.0 0.0 -1 ------- null}
r -t 0.775948235294118 -s 3 -d 2 -p ack -e 40 -c 1 -i 39 -a 1 -x {3.0 0.0 14 ------- null}
+ -t 0.775948235294118 -s 2 -d 0 -p ack -e 40 -c 1 -i 39 -a 1 -x {3.0 0.0 14 ------- null}
- -t 0.775948235294118 -s 2 -d 0 -p ack -e 40 -c 1 -i 39 -a 1 -x {3.0 0.0 14 ------- null}
h -t 0.775948235294118 -s 2 -d 0 -p ack -e 40 -c 1 -i 39 -a 1 -x {3.0 0.0 -1 ------- null}
- -t 0.776461176470588 -s 0 -d 2 -p tcp -e 1040 -c 1 -i 31 -a 1 -x {0.0 3.0 19 ------- null}
h -t 0.776461176470588 -s 0 -d 2 -p tcp -e 1040 -c 1 -i 31 -a 1 -x {0.0 3.0 -1 ------- null}
r -t 0.776536470588235 -s 2 -d 0 -p ack -e 40 -c 1 -i 36 -a 1 -x {3.0 0.0 13 ------- null}
+ -t 0.776536470588235 -s 0 -d 2 -p tcp -e 1040 -c 1 -i 43 -a 1 -x {0.0 3.0 27 ------- null}
+ -t 0.776536470588235 -s 0 -d 2 -p tcp -e 1040 -c 1 -i 44 -a 1 -x {0.0 3.0 28 ------- null}
r -t 0.776672941176471 -s 0 -d 2 -p tcp -e 1040 -c 1 -i 28 -a 1 -x {0.0 3.0 17 ------- null}
+ -t 0.776672941176471 -s 2 -d 3 -p tcp -e 1040 -c 1 -i 28 -a 1 -x {0.0 3.0 17 ------- null}
- -t 0.776672941176471 -s 2 -d 3 -p tcp -e 1040 -c 1 -i 28 -a 1 -x {0.0 3.0 17 ------- null}
h -t 0.776672941176471 -s 2 -d 3 -p tcp -e 1040 -c 1 -i 28 -a 1 -x {0.0 3.0 -1 ------- null}
r -t 0.785204705882353 -s 2 -d 3 -p tcp -e 1040 -c 1 -i 26 -a 1 -x {0.0 3.0 16 ------- null}
+ -t 0.785204705882353 -s 3 -d 2 -p ack -e 40 -c 1 -i 45 -a 1 -x {3.0 0.0 16 ------- null}
- -t 0.785204705882353 -s 3 -d 2 -p ack -e 40 -c 1 -i 45 -a 1 -x {3.0 0.0 16 ------- null}
h -t 0.785204705882353 -s 3 -d 2 -p ack -e 40 -c 1 -i 45 -a 1 -x {3.0 0.0 -1 ------- null}
r -t 0.785736470588235 -s 3 -d 2 -p ack -e 40 -c 1 -i 42 -a 1 -x {3.0 0.0 15 ------- null}
+ -t 0.785736470588235 -s 2 -d 0 -p ack -e 40 -c 1 -i 42 -a 1 -x {3.0 0.0 15 ------- null}
- -t 0.785736470588235 -s 2 -d 0 -p ack -e 40 -c 1 -i 42 -a 1 -x {3.0 0.0 15 ------- null}
h -t 0.785736470588235 -s 2 -d 0 -p ack -e 40 -c 1 -i 42 -a 1 -x {3.0 0.0 -1 ------- null}
- -t 0.786249411764706 -s 0 -d 2 -p tcp -e 1040 -c 1 -i 32 -a 1 -x {0.0 3.0 20 ------- null}
h -t 0.786249411764706 -s 0 -d 2 -p tcp -e 1040 -c 1 -i 32 -a 1 -x {0.0 3.0 -1 ------- null}
r -t 0.786324705882353 -s 2 -d 0 -p ack -e 40 -c 1 -i 39 -a 1 -x {3.0 0.0 14 ------- null}
+ -t 0.786324705882353 -s 0 -d 2 -p tcp -e 1040 -c 1 -i 46 -a 1 -x {0.0 3.0 29 ------- null}
+ -t 0.786324705882353 -s 0 -d 2 -p tcp -e 1040 -c 1 -i 47 -a 1 -x {0.0 3.0 30 ------- null}
d -t 0.786324705882353 -s 0 -d 2 -p tcp -e 1040 -c 1 -i 47 -a 1 -x {0.0 3.0 30 ------- null}
r -t 0.786461176470588 -s 0 -d 2 -p tcp -e 1040 -c 1 -i 29 -a 1 -x {0.0 3.0 18 ------- null}
+ -t 0.786461176470588 -s 2 -d 3 -p tcp -e 1040 -c 1 -i 29 -a 1 -x {0.0 3.0 18 ------- null}
- -t 0.786461176470588 -s 2 -d 3 -p tcp -e 1040 -c 1 -i 29 -a 1 -x {0.0 3.0 18 ------- null}
h -t 0.786461176470588 -s 2 -d 3 -p tcp -e 1040 -c 1 -i 29 -a 1 -x {0.0 3.0 -1 ------- null}
r -t 0.794992941176471 -s 2 -d 3 -p tcp -e 1040 -c 1 -i 28 -a 1 -x {0.0 3.0 17 ------- null}
+ -t 0.794992941176471 -s 3 -d 2 -p ack -e 40 -c 1 -i 48 -a 1 -x {3.0 0.0 17 ------- null}
- -t 0.794992941176471 -s 3 -d 2 -p ack -e 40 -c 1 -i 48 -a 1 -x {3.0 0.0 17 ------- null}
h -t 0.794992941176471 -s 3 -d 2 -p ack -e 40 -c 1 -i 48 -a 1 -x {3.0 0.0 -1 ------- null}
r -t 0.795524705882353 -s 3 -d 2 -p ack -e 40 -c 1 -i 45 -a 1 -x {3.0 0.0 16 ------- null}
+ -t 0.795524705882353 -s 2 -d 0 -p ack -e 40 -c 1 -i 45 -a 1 -x {3.0 0.0 16 ------- null}
- -t 0.795524705882353 -s 2 -d 0 -p ack -e 40 -c 1 -i 45 -a 1 -x {3.0 0.0 16 ------- null}
h -t 0.795524705882353 -s 2 -d 0 -p ack -e 40 -c 1 -i 45 -a 1 -x {3.0 0.0 -1 ------- null}
- -t 0.796037647058824 -s 0 -d 2 -p tcp -e 1040 -c 1 -i 34 -a 1 -x {0.0 3.0 21 ------- null}
h -t 0.796037647058824 -s 0 -d 2 -p tcp -e 1040 -c 1 -i 34 -a 1 -x {0.0 3.0 -1 ------- null}
r -t 0.796112941176471 -s 2 -d 0 -p ack -e 40 -c 1 -i 42 -a 1 -x {3.0 0.0 15 ------- null}
+ -t 0.796112941176471 -s 0 -d 2 -p tcp -e 1040 -c 1 -i 49 -a 1 -x {0.0 3.0 31 ------- null}
+ -t 0.796112941176471 -s 0 -d 2 -p tcp -e 1040 -c 1 -i 50 -a 1 -x {0.0 3.0 32 ------- null}
d -t 0.796112941176471 -s 0 -d 2 -p tcp -e 1040 -c 1 -i 50 -a 1 -x {0.0 3.0 32 ------- null}
r -t 0.796249411764706 -s 0 -d 2 -p tcp -e 1040 -c 1 -i 31 -a 1 -x {0.0 3.0 19 ------- null}
+ -t 0.796249411764706 -s 2 -d 3 -p tcp -e 1040 -c 1 -i 31 -a 1 -x {0.0 3.0 19 ------- null}
- -t 0.796249411764706 -s 2 -d 3 -p tcp -e 1040 -c 1 -i 31 -a 1 -x {0.0 3.0 19 ------- null}
h -t 0.796249411764706 -s 2 -d 3 -p tcp -e 1040 -c 1 -i 31 -a 1 -x {0.0 3.0 -1 ------- null}
r -t 0.804781176470588 -s 2 -d 3 -p tcp -e 1040 -c 1 -i 29 -a 1 -x {0.0 3.0 18 ------- null}
+ -t 0.804781176470588 -s 3 -d 2 -p ack -e 40 -c 1 -i 51 -a 1 -x {3.0 0.0 18 ------- null}
- -t 0.804781176470588 -s 3 -d 2 -p ack -e 40 -c 1 -i 51 -a 1 -x {3.0 0.0 18 ------- null}
h -t 0.804781176470588 -s 3 -d 2 -p ack -e 40 -c 1 -i 51 -a 1 -x {3.0 0.0 -1 ------- null}
r -t 0.805312941176471 -s 3 -d 2 -p ack -e 40 -c 1 -i 48 -a 1 -x {3.0 0.0 17 ------- null}
+ -t 0.805312941176471 -s 2 -d 0 -p ack -e 40 -c 1 -i 48 -a 1 -x {3.0 0.0 17 ------- null}
- -t 0.805312941176471 -s 2 -d 0 -p ack -e 40 -c 1 -i 48 -a 1 -x {3.0 0.0 17 ------- null}
h -t 0.805312941176471 -s 2 -d 0 -p ack -e 40 -c 1 -i 48 -a 1 -x {3.0 0.0 -1 ------- null}
- -t 0.805825882352941 -s 0 -d 2 -p tcp -e 1040 -c 1 -i 35 -a 1 -x {0.0 3.0 22 ------- null}
h -t 0.805825882352941 -s 0 -d 2 -p tcp -e 1040 -c 1 -i 35 -a 1 -x {0.0 3.0 -1 ------- null}